 *******************************************************************************
 ** Site#: 18627        For non-commercial use only     Version 15.027L 64BITS**
 *******************************************************************************
 ** Cite this work as:                                                        **
 **                                                                           **
 ** (a) MOPAC2012, James J. P. Stewart, Stewart Computational Chemistry,      **
 **  Version 15.027L web: HTTP://OpenMOPAC.net         Days remaining: 331    **
 **                                                                           **
 **                                 AND                                       **
 **                                                                           **
 ** (b) Maia, J.D.C., et al., J. Chem. Theory Comput. 2012, 8, 3072-3081.     **
 **                DOI: 10.1021/ct3004645.                                    **
 *******************************************************************************
 **                                                                           **
 **                                MOPAC2012                                  **
 **                                                                           **
 *******************************************************************************

                            PM7 CALCULATION RESULTS


 *******************************************************************************
 *  CALCULATION DONE:                                Mon Mar  2 17:51:05 2015  *
 *  PM7        - The PM7 Hamiltonian to be used
 *  PDBOUT     - PRINT GEOMETY IN PDB FORMAT
 *  START_RES- STARTING RESIDUE NUMBERS DEFINED
 *  Keyword:   START_RES=(1) 
 *  MOZYME     - USE LOCALIZED M.O.s IN SOLVING THE SCF EQUATIONS
 *
 *
 *
 *                 CHARGE ON SYSTEM =     0
 *
 *
 *
 *  EPS= 78.40 - USE ANDREAS KLAMT'S COSMO IMPLICIT SOLVATION MODEL
 *  RSOLV=  1.300
 *  LET        - OVERRIDE SOME SAFETY CHECKS
 *  XYZ        - CARTESIAN COORDINATE SYSTEM TO BE USED
 *  LBFGS      - USE THE LBFGS GEOMETRY OPTIMIZER
 *  T=         - A TIME OF      2.0 WEEKS   REQUESTED
 *  DUMP=N     - RESTART FILE WRITTEN EVERY  4320.000 SECONDS
 *  DDMIN=     - MINIMUM TRUST RADIUS  0.000 ANG/RAD
 *  ITRY=      - DO A MAXIMUM OF   500 ITERATIONS FOR SCF
 *  PL         - MONITOR CONVERGENCE IN DENSITY MATRIX
 *******************************************************************************
 START_RES=(1)  PM7 DUMP=4320 XYZ EPS=78.40 RSOLV=1.30 LBFGS MOZYME PDBOUT +
 CHARGE=0 LET DDMIN=0.0 T=2W PL ITRY=500
 Carbon nanotube 5x5 18 units: Geometry Optimization

   ATOM                 CHEMICAL                   X               Y               Z
  NUMBER                 SYMBOL               (ANGSTROMS)     (ANGSTROMS)     (ANGSTROMS)
 
     1       C(ATOM      1  C   UNK     1)    3.41000000  *   0.00000000  * -22.16100000  *
     2       C(ATOM      2  C   UNK     1)    3.11300000  *   1.39000000  * -22.16100000  *
     3       C(ATOM      3  C   UNK     1)    2.75800000  *   2.00400000  * -20.93000000  *
     4       C(ATOM      4  C   UNK     1)    1.70200000  *   2.95400000  * -20.93000000  *
     5       C(ATOM      5  C   UNK     1)    1.05400000  *   3.24300000  * -22.16100000  *
     6       C(ATOM      6  C   UNK     1)   -0.36000000  *   3.39100000  * -22.16100000  *
     7       C(ATOM      7  C   UNK     1)   -1.05400000  *   3.24300000  * -20.93000000  *
     8       C(ATOM      8  C   UNK     1)   -2.28400000  *   2.53200000  * -20.93000000  *
     9       C(ATOM      9  C   UNK     1)   -2.75800000  *   2.00400000  * -22.16100000  *
    10       C(ATOM     10  C   UNK     1)   -3.33600000  *   0.70600000  * -22.16100000  *
    11       C(ATOM     11  C   UNK     1)   -3.41000000  *   0.00000000  * -20.93000000  *
    12       C(ATOM     12  C   UNK     1)   -3.11300000  *  -1.39000000  * -20.93000000  *
    13       C(ATOM     13  C   UNK     1)   -2.75800000  *  -2.00400000  * -22.16100000  *
    14       C(ATOM     14  C   UNK     1)   -1.70200000  *  -2.95400000  * -22.16100000  *
    15       C(ATOM     15  C   UNK     1)   -1.05400000  *  -3.24300000  * -20.93000000  *
    16       C(ATOM     16  C   UNK     1)    0.36000000  *  -3.39100000  * -20.93000000  *
    17       C(ATOM     17  C   UNK     1)    1.05400000  *  -3.24300000  * -22.16100000  *
    18       C(ATOM     18  C   UNK     1)    2.28400000  *  -2.53200000  * -22.16100000  *
    19       C(ATOM     19  C   UNK     1)    2.75800000  *  -2.00400000  * -20.93000000  *
    20       C(ATOM     20  C   UNK     1)    3.33600000  *  -0.70600000  * -20.93000000  *
    21       C(ATOM     21  C   UNK     1)    3.41000000  *   0.00000000  * -19.69900000  *
    22       C(ATOM     22  C   UNK     1)    3.11300000  *   1.39000000  * -19.69900000  *
    23       C(ATOM     23  C   UNK     1)    2.75800000  *   2.00400000  * -18.46800000  *
    24       C(ATOM     24  C   UNK     1)    1.70200000  *   2.95400000  * -18.46800000  *
    25       C(ATOM     25  C   UNK     1)    1.05400000  *   3.24300000  * -19.69900000  *
    26       C(ATOM     26  C   UNK     1)   -0.36000000  *   3.39100000  * -19.69900000  *
    27       C(ATOM     27  C   UNK     1)   -1.05400000  *   3.24300000  * -18.46800000  *
    28       C(ATOM     28  C   UNK     1)   -2.28400000  *   2.53200000  * -18.46800000  *
    29       C(ATOM     29  C   UNK     1)   -2.75800000  *   2.00400000  * -19.69900000  *
    30       C(ATOM     30  C   UNK     1)   -3.33600000  *   0.70600000  * -19.69900000  *
    31       C(ATOM     31  C   UNK     1)   -3.41000000  *   0.00000000  * -18.46800000  *
    32       C(ATOM     32  C   UNK     1)   -3.11300000  *  -1.39000000  * -18.46800000  *
    33       C(ATOM     33  C   UNK     1)   -2.75800000  *  -2.00400000  * -19.69900000  *
    34       C(ATOM     34  C   UNK     1)   -1.70200000  *  -2.95400000  * -19.69900000  *
    35       C(ATOM     35  C   UNK     1)   -1.05400000  *  -3.24300000  * -18.46800000  *
    36       C(ATOM     36  C   UNK     1)    0.36000000  *  -3.39100000  * -18.46800000  *
    37       C(ATOM     37  C   UNK     1)    1.05400000  *  -3.24300000  * -19.69900000  *
    38       C(ATOM     38  C   UNK     1)    2.28400000  *  -2.53200000  * -19.69900000  *
    39       C(ATOM     39  C   UNK     1)    2.75800000  *  -2.00400000  * -18.46800000  *
    40       C(ATOM     40  C   UNK     1)    3.33600000  *  -0.70600000  * -18.46800000  *
    41       C(ATOM     41  C   UNK     1)    3.41000000  *   0.00000000  * -17.23700000  *
    42       C(ATOM     42  C   UNK     1)    3.11300000  *   1.39000000  * -17.23700000  *
    43       C(ATOM     43  C   UNK     1)    2.75800000  *   2.00400000  * -16.00500000  *
    44       C(ATOM     44  C   UNK     1)    1.70200000  *   2.95400000  * -16.00500000  *
    45       C(ATOM     45  C   UNK     1)    1.05400000  *   3.24300000  * -17.23700000  *
    46       C(ATOM     46  C   UNK     1)   -0.36000000  *   3.39100000  * -17.23700000  *
    47       C(ATOM     47  C   UNK     1)   -1.05400000  *   3.24300000  * -16.00500000  *
    48       C(ATOM     48  C   UNK     1)   -2.28400000  *   2.53200000  * -16.00500000  *
    49       C(ATOM     49  C   UNK     1)   -2.75800000  *   2.00400000  * -17.23700000  *
    50       C(ATOM     50  C   UNK     1)   -3.33600000  *   0.70600000  * -17.23700000  *
    51       C(ATOM     51  C   UNK     1)   -3.41000000  *   0.00000000  * -16.00500000  *
    52       C(ATOM     52  C   UNK     1)   -3.11300000  *  -1.39000000  * -16.00500000  *
    53       C(ATOM     53  C   UNK     1)   -2.75800000  *  -2.00400000  * -17.23700000  *
    54       C(ATOM     54  C   UNK     1)   -1.70200000  *  -2.95400000  * -17.23700000  *
    55       C(ATOM     55  C   UNK     1)   -1.05400000  *  -3.24300000  * -16.00500000  *
    56       C(ATOM     56  C   UNK     1)    0.36000000  *  -3.39100000  * -16.00500000  *
    57       C(ATOM     57  C   UNK     1)    1.05400000  *  -3.24300000  * -17.23700000  *
    58       C(ATOM     58  C   UNK     1)    2.28400000  *  -2.53200000  * -17.23700000  *
    59       C(ATOM     59  C   UNK     1)    2.75800000  *  -2.00400000  * -16.00500000  *
    60       C(ATOM     60  C   UNK     1)    3.33600000  *  -0.70600000  * -16.00500000  *
    61       C(ATOM     61  C   UNK     1)    3.41000000  *   0.00000000  * -14.77400000  *
    62       C(ATOM     62  C   UNK     1)    3.11300000  *   1.39000000  * -14.77400000  *
    63       C(ATOM     63  C   UNK     1)    2.75800000  *   2.00400000  * -13.54300000  *
    64       C(ATOM     64  C   UNK     1)    1.70200000  *   2.95400000  * -13.54300000  *
    65       C(ATOM     65  C   UNK     1)    1.05400000  *   3.24300000  * -14.77400000  *
    66       C(ATOM     66  C   UNK     1)   -0.36000000  *   3.39100000  * -14.77400000  *
    67       C(ATOM     67  C   UNK     1)   -1.05400000  *   3.24300000  * -13.54300000  *
    68       C(ATOM     68  C   UNK     1)   -2.28400000  *   2.53200000  * -13.54300000  *
    69       C(ATOM     69  C   UNK     1)   -2.75800000  *   2.00400000  * -14.77400000  *
    70       C(ATOM     70  C   UNK     1)   -3.33600000  *   0.70600000  * -14.77400000  *
    71       C(ATOM     71  C   UNK     1)   -3.41000000  *   0.00000000  * -13.54300000  *
    72       C(ATOM     72  C   UNK     1)   -3.11300000  *  -1.39000000  * -13.54300000  *
    73       C(ATOM     73  C   UNK     1)   -2.75800000  *  -2.00400000  * -14.77400000  *
    74       C(ATOM     74  C   UNK     1)   -1.70200000  *  -2.95400000  * -14.77400000  *
    75       C(ATOM     75  C   UNK     1)   -1.05400000  *  -3.24300000  * -13.54300000  *
    76       C(ATOM     76  C   UNK     1)    0.36000000  *  -3.39100000  * -13.54300000  *
    77       C(ATOM     77  C   UNK     1)    1.05400000  *  -3.24300000  * -14.77400000  *
    78       C(ATOM     78  C   UNK     1)    2.28400000  *  -2.53200000  * -14.77400000  *
    79       C(ATOM     79  C   UNK     1)    2.75800000  *  -2.00400000  * -13.54300000  *
    80       C(ATOM     80  C   UNK     1)    3.33600000  *  -0.70600000  * -13.54300000  *
    81       C(ATOM     81  C   UNK     1)    3.41000000  *   0.00000000  * -12.31200000  *
    82       C(ATOM     82  C   UNK     1)    3.11300000  *   1.39000000  * -12.31200000  *
    83       C(ATOM     83  C   UNK     1)    2.75800000  *   2.00400000  * -11.08100000  *
    84       C(ATOM     84  C   UNK     1)    1.70200000  *   2.95400000  * -11.08100000  *
    85       C(ATOM     85  C   UNK     1)    1.05400000  *   3.24300000  * -12.31200000  *
    86       C(ATOM     86  C   UNK     1)   -0.36000000  *   3.39100000  * -12.31200000  *
    87       C(ATOM     87  C   UNK     1)   -1.05400000  *   3.24300000  * -11.08100000  *
    88       C(ATOM     88  C   UNK     1)   -2.28400000  *   2.53200000  * -11.08100000  *
    89       C(ATOM     89  C   UNK     1)   -2.75800000  *   2.00400000  * -12.31200000  *
    90       C(ATOM     90  C   UNK     1)   -3.33600000  *   0.70600000  * -12.31200000  *
    91       C(ATOM     91  C   UNK     1)   -3.41000000  *   0.00000000  * -11.08100000  *
    92       C(ATOM     92  C   UNK     1)   -3.11300000  *  -1.39000000  * -11.08100000  *
    93       C(ATOM     93  C   UNK     1)   -2.75800000  *  -2.00400000  * -12.31200000  *
    94       C(ATOM     94  C   UNK     1)   -1.70200000  *  -2.95400000  * -12.31200000  *
    95       C(ATOM     95  C   UNK     1)   -1.05400000  *  -3.24300000  * -11.08100000  *
    96       C(ATOM     96  C   UNK     1)    0.36000000  *  -3.39100000  * -11.08100000  *
    97       C(ATOM     97  C   UNK     1)    1.05400000  *  -3.24300000  * -12.31200000  *
    98       C(ATOM     98  C   UNK     1)    2.28400000  *  -2.53200000  * -12.31200000  *
    99       C(ATOM     99  C   UNK     1)    2.75800000  *  -2.00400000  * -11.08100000  *
   100       C(ATOM    100  C   UNK     1)    3.33600000  *  -0.70600000  * -11.08100000  *
   101       C(ATOM    101  C   UNK     1)    3.41000000  *   0.00000000  *  -9.84900000  *
   102       C(ATOM    102  C   UNK     1)    3.11300000  *   1.39000000  *  -9.84900000  *
   103       C(ATOM    103  C   UNK     1)    2.75800000  *   2.00400000  *  -8.61800000  *
   104       C(ATOM    104  C   UNK     1)    1.70200000  *   2.95400000  *  -8.61800000  *
   105       C(ATOM    105  C   UNK     1)    1.05400000  *   3.24300000  *  -9.84900000  *
   106       C(ATOM    106  C   UNK     1)   -0.36000000  *   3.39100000  *  -9.84900000  *
   107       C(ATOM    107  C   UNK     1)   -1.05400000  *   3.24300000  *  -8.61800000  *
   108       C(ATOM    108  C   UNK     1)   -2.28400000  *   2.53200000  *  -8.61800000  *
   109       C(ATOM    109  C   UNK     1)   -2.75800000  *   2.00400000  *  -9.84900000  *
   110       C(ATOM    110  C   UNK     1)   -3.33600000  *   0.70600000  *  -9.84900000  *
   111       C(ATOM    111  C   UNK     1)   -3.41000000  *   0.00000000  *  -8.61800000  *
   112       C(ATOM    112  C   UNK     1)   -3.11300000  *  -1.39000000  *  -8.61800000  *
   113       C(ATOM    113  C   UNK     1)   -2.75800000  *  -2.00400000  *  -9.84900000  *
   114       C(ATOM    114  C   UNK     1)   -1.70200000  *  -2.95400000  *  -9.84900000  *
   115       C(ATOM    115  C   UNK     1)   -1.05400000  *  -3.24300000  *  -8.61800000  *
   116       C(ATOM    116  C   UNK     1)    0.36000000  *  -3.39100000  *  -8.61800000  *
   117       C(ATOM    117  C   UNK     1)    1.05400000  *  -3.24300000  *  -9.84900000  *
   118       C(ATOM    118  C   UNK     1)    2.28400000  *  -2.53200000  *  -9.84900000  *
   119       C(ATOM    119  C   UNK     1)    2.75800000  *  -2.00400000  *  -8.61800000  *
   120       C(ATOM    120  C   UNK     1)    3.33600000  *  -0.70600000  *  -8.61800000  *
   121       C(ATOM    121  C   UNK     1)    3.41000000  *   0.00000000  *  -7.38700000  *
   122       C(ATOM    122  C   UNK     1)    3.11300000  *   1.39000000  *  -7.38700000  *
   123       C(ATOM    123  C   UNK     1)    2.75800000  *   2.00400000  *  -6.15600000  *
   124       C(ATOM    124  C   UNK     1)    1.70200000  *   2.95400000  *  -6.15600000  *
   125       C(ATOM    125  C   UNK     1)    1.05400000  *   3.24300000  *  -7.38700000  *
   126       C(ATOM    126  C   UNK     1)   -0.36000000  *   3.39100000  *  -7.38700000  *
   127       C(ATOM    127  C   UNK     1)   -1.05400000  *   3.24300000  *  -6.15600000  *
   128       C(ATOM    128  C   UNK     1)   -2.28400000  *   2.53200000  *  -6.15600000  *
   129       C(ATOM    129  C   UNK     1)   -2.75800000  *   2.00400000  *  -7.38700000  *
   130       C(ATOM    130  C   UNK     1)   -3.33600000  *   0.70600000  *  -7.38700000  *
   131       C(ATOM    131  C   UNK     1)   -3.41000000  *   0.00000000  *  -6.15600000  *
   132       C(ATOM    132  C   UNK     1)   -3.11300000  *  -1.39000000  *  -6.15600000  *
   133       C(ATOM    133  C   UNK     1)   -2.75800000  *  -2.00400000  *  -7.38700000  *
   134       C(ATOM    134  C   UNK     1)   -1.70200000  *  -2.95400000  *  -7.38700000  *
   135       C(ATOM    135  C   UNK     1)   -1.05400000  *  -3.24300000  *  -6.15600000  *
   136       C(ATOM    136  C   UNK     1)    0.36000000  *  -3.39100000  *  -6.15600000  *
   137       C(ATOM    137  C   UNK     1)    1.05400000  *  -3.24300000  *  -7.38700000  *
   138       C(ATOM    138  C   UNK     1)    2.28400000  *  -2.53200000  *  -7.38700000  *
   139       C(ATOM    139  C   UNK     1)    2.75800000  *  -2.00400000  *  -6.15600000  *
   140       C(ATOM    140  C   UNK     1)    3.33600000  *  -0.70600000  *  -6.15600000  *
   141       C(ATOM    141  C   UNK     1)    3.41000000  *   0.00000000  *  -4.92500000  *
   142       C(ATOM    142  C   UNK     1)    3.11300000  *   1.39000000  *  -4.92500000  *
   143       C(ATOM    143  C   UNK     1)    2.75800000  *   2.00400000  *  -3.69400000  *
   144       C(ATOM    144  C   UNK     1)    1.70200000  *   2.95400000  *  -3.69400000  *
   145       C(ATOM    145  C   UNK     1)    1.05400000  *   3.24300000  *  -4.92500000  *
   146       C(ATOM    146  C   UNK     1)   -0.36000000  *   3.39100000  *  -4.92500000  *
   147       C(ATOM    147  C   UNK     1)   -1.05400000  *   3.24300000  *  -3.69400000  *
   148       C(ATOM    148  C   UNK     1)   -2.28400000  *   2.53200000  *  -3.69400000  *
   149       C(ATOM    149  C   UNK     1)   -2.75800000  *   2.00400000  *  -4.92500000  *
   150       C(ATOM    150  C   UNK     1)   -3.33600000  *   0.70600000  *  -4.92500000  *
   151       C(ATOM    151  C   UNK     1)   -3.41000000  *   0.00000000  *  -3.69400000  *
   152       C(ATOM    152  C   UNK     1)   -3.11300000  *  -1.39000000  *  -3.69400000  *
   153       C(ATOM    153  C   UNK     1)   -2.75800000  *  -2.00400000  *  -4.92500000  *
   154       C(ATOM    154  C   UNK     1)   -1.70200000  *  -2.95400000  *  -4.92500000  *
   155       C(ATOM    155  C   UNK     1)   -1.05400000  *  -3.24300000  *  -3.69400000  *
   156       C(ATOM    156  C   UNK     1)    0.36000000  *  -3.39100000  *  -3.69400000  *
   157       C(ATOM    157  C   UNK     1)    1.05400000  *  -3.24300000  *  -4.92500000  *
   158       C(ATOM    158  C   UNK     1)    2.28400000  *  -2.53200000  *  -4.92500000  *
   159       C(ATOM    159  C   UNK     1)    2.75800000  *  -2.00400000  *  -3.69400000  *
   160       C(ATOM    160  C   UNK     1)    3.33600000  *  -0.70600000  *  -3.69400000  *
   161       C(ATOM    161  C   UNK     1)    3.41000000  *   0.00000000  *  -2.46200000  *
   162       C(ATOM    162  C   UNK     1)    3.11300000  *   1.39000000  *  -2.46200000  *
   163       C(ATOM    163  C   UNK     1)    2.75800000  *   2.00400000  *  -1.23100000  *
   164       C(ATOM    164  C   UNK     1)    1.70200000  *   2.95400000  *  -1.23100000  *
   165       C(ATOM    165  C   UNK     1)    1.05400000  *   3.24300000  *  -2.46200000  *
   166       C(ATOM    166  C   UNK     1)   -0.36000000  *   3.39100000  *  -2.46200000  *
   167       C(ATOM    167  C   UNK     1)   -1.05400000  *   3.24300000  *  -1.23100000  *
   168       C(ATOM    168  C   UNK     1)   -2.28400000  *   2.53200000  *  -1.23100000  *
   169       C(ATOM    169  C   UNK     1)   -2.75800000  *   2.00400000  *  -2.46200000  *
   170       C(ATOM    170  C   UNK     1)   -3.33600000  *   0.70600000  *  -2.46200000  *
   171       C(ATOM    171  C   UNK     1)   -3.41000000  *   0.00000000  *  -1.23100000  *
   172       C(ATOM    172  C   UNK     1)   -3.11300000  *  -1.39000000  *  -1.23100000  *
   173       C(ATOM    173  C   UNK     1)   -2.75800000  *  -2.00400000  *  -2.46200000  *
   174       C(ATOM    174  C   UNK     1)   -1.70200000  *  -2.95400000  *  -2.46200000  *
   175       C(ATOM    175  C   UNK     1)   -1.05400000  *  -3.24300000  *  -1.23100000  *
   176       C(ATOM    176  C   UNK     1)    0.36000000  *  -3.39100000  *  -1.23100000  *
   177       C(ATOM    177  C   UNK     1)    1.05400000  *  -3.24300000  *  -2.46200000  *
   178       C(ATOM    178  C   UNK     1)    2.28400000  *  -2.53200000  *  -2.46200000  *
   179       C(ATOM    179  C   UNK     1)    2.75800000  *  -2.00400000  *  -1.23100000  *
   180       C(ATOM    180  C   UNK     1)    3.33600000  *  -0.70600000  *  -1.23100000  *
   181       C(ATOM    181  C   UNK     1)    3.41000000  *   0.00000000  *   0.00000000  *
   182       C(ATOM    182  C   UNK     1)    3.11300000  *   1.39000000  *   0.00000000  *
   183       C(ATOM    183  C   UNK     1)    2.75800000  *   2.00400000  *   1.23100000  *
   184       C(ATOM    184  C   UNK     1)    1.70200000  *   2.95400000  *   1.23100000  *
   185       C(ATOM    185  C   UNK     1)    1.05400000  *   3.24300000  *   0.00000000  *
   186       C(ATOM    186  C   UNK     1)   -0.36000000  *   3.39100000  *   0.00000000  *
   187       C(ATOM    187  C   UNK     1)   -1.05400000  *   3.24300000  *   1.23100000  *
   188       C(ATOM    188  C   UNK     1)   -2.28400000  *   2.53200000  *   1.23100000  *
   189       C(ATOM    189  C   UNK     1)   -2.75800000  *   2.00400000  *   0.00000000  *
   190       C(ATOM    190  C   UNK     1)   -3.33600000  *   0.70600000  *   0.00000000  *
   191       C(ATOM    191  C   UNK     1)   -3.41000000  *   0.00000000  *   1.23100000  *
   192       C(ATOM    192  C   UNK     1)   -3.11300000  *  -1.39000000  *   1.23100000  *
   193       C(ATOM    193  C   UNK     1)   -2.75800000  *  -2.00400000  *   0.00000000  *
   194       C(ATOM    194  C   UNK     1)   -1.70200000  *  -2.95400000  *   0.00000000  *
   195       C(ATOM    195  C   UNK     1)   -1.05400000  *  -3.24300000  *   1.23100000  *
   196       C(ATOM    196  C   UNK     1)    0.36000000  *  -3.39100000  *   1.23100000  *
   197       C(ATOM    197  C   UNK     1)    1.05400000  *  -3.24300000  *   0.00000000  *
   198       C(ATOM    198  C   UNK     1)    2.28400000  *  -2.53200000  *   0.00000000  *
   199       C(ATOM    199  C   UNK     1)    2.75800000  *  -2.00400000  *   1.23100000  *
   200       C(ATOM    200  C   UNK     1)    3.33600000  *  -0.70600000  *   1.23100000  *
   201       C(ATOM    201  C   UNK     1)    3.41000000  *   0.00000000  *   2.46200000  *
   202       C(ATOM    202  C   UNK     1)    3.11300000  *   1.39000000  *   2.46200000  *
   203       C(ATOM    203  C   UNK     1)    2.75800000  *   2.00400000  *   3.69400000  *
   204       C(ATOM    204  C   UNK     1)    1.70200000  *   2.95400000  *   3.69400000  *
   205       C(ATOM    205  C   UNK     1)    1.05400000  *   3.24300000  *   2.46200000  *
   206       C(ATOM    206  C   UNK     1)   -0.36000000  *   3.39100000  *   2.46200000  *
   207       C(ATOM    207  C   UNK     1)   -1.05400000  *   3.24300000  *   3.69400000  *
   208       C(ATOM    208  C   UNK     1)   -2.28400000  *   2.53200000  *   3.69400000  *
   209       C(ATOM    209  C   UNK     1)   -2.75800000  *   2.00400000  *   2.46200000  *
   210       C(ATOM    210  C   UNK     1)   -3.33600000  *   0.70600000  *   2.46200000  *
   211       C(ATOM    211  C   UNK     1)   -3.41000000  *   0.00000000  *   3.69400000  *
   212       C(ATOM    212  C   UNK     1)   -3.11300000  *  -1.39000000  *   3.69400000  *
   213       C(ATOM    213  C   UNK     1)   -2.75800000  *  -2.00400000  *   2.46200000  *
   214       C(ATOM    214  C   UNK     1)   -1.70200000  *  -2.95400000  *   2.46200000  *
   215       C(ATOM    215  C   UNK     1)   -1.05400000  *  -3.24300000  *   3.69400000  *
   216       C(ATOM    216  C   UNK     1)    0.36000000  *  -3.39100000  *   3.69400000  *
   217       C(ATOM    217  C   UNK     1)    1.05400000  *  -3.24300000  *   2.46200000  *
   218       C(ATOM    218  C   UNK     1)    2.28400000  *  -2.53200000  *   2.46200000  *
   219       C(ATOM    219  C   UNK     1)    2.75800000  *  -2.00400000  *   3.69400000  *
   220       C(ATOM    220  C   UNK     1)    3.33600000  *  -0.70600000  *   3.69400000  *
   221       C(ATOM    221  C   UNK     1)    3.41000000  *   0.00000000  *   4.92500000  *
   222       C(ATOM    222  C   UNK     1)    3.11300000  *   1.39000000  *   4.92500000  *
   223       C(ATOM    223  C   UNK     1)    2.75800000  *   2.00400000  *   6.15600000  *
   224       C(ATOM    224  C   UNK     1)    1.70200000  *   2.95400000  *   6.15600000  *
   225       C(ATOM    225  C   UNK     1)    1.05400000  *   3.24300000  *   4.92500000  *
   226       C(ATOM    226  C   UNK     1)   -0.36000000  *   3.39100000  *   4.92500000  *
   227       C(ATOM    227  C   UNK     1)   -1.05400000  *   3.24300000  *   6.15600000  *
   228       C(ATOM    228  C   UNK     1)   -2.28400000  *   2.53200000  *   6.15600000  *
   229       C(ATOM    229  C   UNK     1)   -2.75800000  *   2.00400000  *   4.92500000  *
   230       C(ATOM    230  C   UNK     1)   -3.33600000  *   0.70600000  *   4.92500000  *
   231       C(ATOM    231  C   UNK     1)   -3.41000000  *   0.00000000  *   6.15600000  *
   232       C(ATOM    232  C   UNK     1)   -3.11300000  *  -1.39000000  *   6.15600000  *
   233       C(ATOM    233  C   UNK     1)   -2.75800000  *  -2.00400000  *   4.92500000  *
   234       C(ATOM    234  C   UNK     1)   -1.70200000  *  -2.95400000  *   4.92500000  *
   235       C(ATOM    235  C   UNK     1)   -1.05400000  *  -3.24300000  *   6.15600000  *
   236       C(ATOM    236  C   UNK     1)    0.36000000  *  -3.39100000  *   6.15600000  *
   237       C(ATOM    237  C   UNK     1)    1.05400000  *  -3.24300000  *   4.92500000  *
   238       C(ATOM    238  C   UNK     1)    2.28400000  *  -2.53200000  *   4.92500000  *
   239       C(ATOM    239  C   UNK     1)    2.75800000  *  -2.00400000  *   6.15600000  *
   240       C(ATOM    240  C   UNK     1)    3.33600000  *  -0.70600000  *   6.15600000  *
   241       C(ATOM    241  C   UNK     1)    3.41000000  *   0.00000000  *   7.38700000  *
   242       C(ATOM    242  C   UNK     1)    3.11300000  *   1.39000000  *   7.38700000  *
   243       C(ATOM    243  C   UNK     1)    2.75800000  *   2.00400000  *   8.61800000  *
   244       C(ATOM    244  C   UNK     1)    1.70200000  *   2.95400000  *   8.61800000  *
   245       C(ATOM    245  C   UNK     1)    1.05400000  *   3.24300000  *   7.38700000  *
   246       C(ATOM    246  C   UNK     1)   -0.36000000  *   3.39100000  *   7.38700000  *
   247       C(ATOM    247  C   UNK     1)   -1.05400000  *   3.24300000  *   8.61800000  *
   248       C(ATOM    248  C   UNK     1)   -2.28400000  *   2.53200000  *   8.61800000  *
   249       C(ATOM    249  C   UNK     1)   -2.75800000  *   2.00400000  *   7.38700000  *
   250       C(ATOM    250  C   UNK     1)   -3.33600000  *   0.70600000  *   7.38700000  *
   251       C(ATOM    251  C   UNK     1)   -3.41000000  *   0.00000000  *   8.61800000  *
   252       C(ATOM    252  C   UNK     1)   -3.11300000  *  -1.39000000  *   8.61800000  *
   253       C(ATOM    253  C   UNK     1)   -2.75800000  *  -2.00400000  *   7.38700000  *
   254       C(ATOM    254  C   UNK     1)   -1.70200000  *  -2.95400000  *   7.38700000  *
   255       C(ATOM    255  C   UNK     1)   -1.05400000  *  -3.24300000  *   8.61800000  *
   256       C(ATOM    256  C   UNK     1)    0.36000000  *  -3.39100000  *   8.61800000  *
   257       C(ATOM    257  C   UNK     1)    1.05400000  *  -3.24300000  *   7.38700000  *
   258       C(ATOM    258  C   UNK     1)    2.28400000  *  -2.53200000  *   7.38700000  *
   259       C(ATOM    259  C   UNK     1)    2.75800000  *  -2.00400000  *   8.61800000  *
   260       C(ATOM    260  C   UNK     1)    3.33600000  *  -0.70600000  *   8.61800000  *
   261       C(ATOM    261  C   UNK     1)    3.41000000  *   0.00000000  *   9.84900000  *
   262       C(ATOM    262  C   UNK     1)    3.11300000  *   1.39000000  *   9.84900000  *
   263       C(ATOM    263  C   UNK     1)    2.75800000  *   2.00400000  *  11.08100000  *
   264       C(ATOM    264  C   UNK     1)    1.70200000  *   2.95400000  *  11.08100000  *
   265       C(ATOM    265  C   UNK     1)    1.05400000  *   3.24300000  *   9.84900000  *
   266       C(ATOM    266  C   UNK     1)   -0.36000000  *   3.39100000  *   9.84900000  *
   267       C(ATOM    267  C   UNK     1)   -1.05400000  *   3.24300000  *  11.08100000  *
   268       C(ATOM    268  C   UNK     1)   -2.28400000  *   2.53200000  *  11.08100000  *
   269       C(ATOM    269  C   UNK     1)   -2.75800000  *   2.00400000  *   9.84900000  *
   270       C(ATOM    270  C   UNK     1)   -3.33600000  *   0.70600000  *   9.84900000  *
   271       C(ATOM    271  C   UNK     1)   -3.41000000  *   0.00000000  *  11.08100000  *
   272       C(ATOM    272  C   UNK     1)   -3.11300000  *  -1.39000000  *  11.08100000  *
   273       C(ATOM    273  C   UNK     1)   -2.75800000  *  -2.00400000  *   9.84900000  *
   274       C(ATOM    274  C   UNK     1)   -1.70200000  *  -2.95400000  *   9.84900000  *
   275       C(ATOM    275  C   UNK     1)   -1.05400000  *  -3.24300000  *  11.08100000  *
   276       C(ATOM    276  C   UNK     1)    0.36000000  *  -3.39100000  *  11.08100000  *
   277       C(ATOM    277  C   UNK     1)    1.05400000  *  -3.24300000  *   9.84900000  *
   278       C(ATOM    278  C   UNK     1)    2.28400000  *  -2.53200000  *   9.84900000  *
   279       C(ATOM    279  C   UNK     1)    2.75800000  *  -2.00400000  *  11.08100000  *
   280       C(ATOM    280  C   UNK     1)    3.33600000  *  -0.70600000  *  11.08100000  *
   281       C(ATOM    281  C   UNK     1)    3.41000000  *   0.00000000  *  12.31200000  *
   282       C(ATOM    282  C   UNK     1)    3.11300000  *   1.39000000  *  12.31200000  *
   283       C(ATOM    283  C   UNK     1)    2.75800000  *   2.00400000  *  13.54300000  *
   284       C(ATOM    284  C   UNK     1)    1.70200000  *   2.95400000  *  13.54300000  *
   285       C(ATOM    285  C   UNK     1)    1.05400000  *   3.24300000  *  12.31200000  *
   286       C(ATOM    286  C   UNK     1)   -0.36000000  *   3.39100000  *  12.31200000  *
   287       C(ATOM    287  C   UNK     1)   -1.05400000  *   3.24300000  *  13.54300000  *
   288       C(ATOM    288  C   UNK     1)   -2.28400000  *   2.53200000  *  13.54300000  *
   289       C(ATOM    289  C   UNK     1)   -2.75800000  *   2.00400000  *  12.31200000  *
   290       C(ATOM    290  C   UNK     1)   -3.33600000  *   0.70600000  *  12.31200000  *
   291       C(ATOM    291  C   UNK     1)   -3.41000000  *   0.00000000  *  13.54300000  *
   292       C(ATOM    292  C   UNK     1)   -3.11300000  *  -1.39000000  *  13.54300000  *
   293       C(ATOM    293  C   UNK     1)   -2.75800000  *  -2.00400000  *  12.31200000  *
   294       C(ATOM    294  C   UNK     1)   -1.70200000  *  -2.95400000  *  12.31200000  *
   295       C(ATOM    295  C   UNK     1)   -1.05400000  *  -3.24300000  *  13.54300000  *
   296       C(ATOM    296  C   UNK     1)    0.36000000  *  -3.39100000  *  13.54300000  *
   297       C(ATOM    297  C   UNK     1)    1.05400000  *  -3.24300000  *  12.31200000  *
   298       C(ATOM    298  C   UNK     1)    2.28400000  *  -2.53200000  *  12.31200000  *
   299       C(ATOM    299  C   UNK     1)    2.75800000  *  -2.00400000  *  13.54300000  *
   300       C(ATOM    300  C   UNK     1)    3.33600000  *  -0.70600000  *  13.54300000  *
   301       C(ATOM    301  C   UNK     1)    3.41000000  *   0.00000000  *  14.77400000  *
   302       C(ATOM    302  C   UNK     1)    3.11300000  *   1.39000000  *  14.77400000  *
   303       C(ATOM    303  C   UNK     1)    2.75800000  *   2.00400000  *  16.00500000  *
   304       C(ATOM    304  C   UNK     1)    1.70200000  *   2.95400000  *  16.00500000  *
   305       C(ATOM    305  C   UNK     1)    1.05400000  *   3.24300000  *  14.77400000  *
   306       C(ATOM    306  C   UNK     1)   -0.36000000  *   3.39100000  *  14.77400000  *
   307       C(ATOM    307  C   UNK     1)   -1.05400000  *   3.24300000  *  16.00500000  *
   308       C(ATOM    308  C   UNK     1)   -2.28400000  *   2.53200000  *  16.00500000  *
   309       C(ATOM    309  C   UNK     1)   -2.75800000  *   2.00400000  *  14.77400000  *
   310       C(ATOM    310  C   UNK     1)   -3.33600000  *   0.70600000  *  14.77400000  *
   311       C(ATOM    311  C   UNK     1)   -3.41000000  *   0.00000000  *  16.00500000  *
   312       C(ATOM    312  C   UNK     1)   -3.11300000  *  -1.39000000  *  16.00500000  *
   313       C(ATOM    313  C   UNK     1)   -2.75800000  *  -2.00400000  *  14.77400000  *
   314       C(ATOM    314  C   UNK     1)   -1.70200000  *  -2.95400000  *  14.77400000  *
   315       C(ATOM    315  C   UNK     1)   -1.05400000  *  -3.24300000  *  16.00500000  *
   316       C(ATOM    316  C   UNK     1)    0.36000000  *  -3.39100000  *  16.00500000  *
   317       C(ATOM    317  C   UNK     1)    1.05400000  *  -3.24300000  *  14.77400000  *
   318       C(ATOM    318  C   UNK     1)    2.28400000  *  -2.53200000  *  14.77400000  *
   319       C(ATOM    319  C   UNK     1)    2.75800000  *  -2.00400000  *  16.00500000  *
   320       C(ATOM    320  C   UNK     1)    3.33600000  *  -0.70600000  *  16.00500000  *
   321       C(ATOM    321  C   UNK     1)    3.41000000  *   0.00000000  *  17.23700000  *
   322       C(ATOM    322  C   UNK     1)    3.11300000  *   1.39000000  *  17.23700000  *
   323       C(ATOM    323  C   UNK     1)    2.75800000  *   2.00400000  *  18.46800000  *
   324       C(ATOM    324  C   UNK     1)    1.70200000  *   2.95400000  *  18.46800000  *
   325       C(ATOM    325  C   UNK     1)    1.05400000  *   3.24300000  *  17.23700000  *
   326       C(ATOM    326  C   UNK     1)   -0.36000000  *   3.39100000  *  17.23700000  *
   327       C(ATOM    327  C   UNK     1)   -1.05400000  *   3.24300000  *  18.46800000  *
   328       C(ATOM    328  C   UNK     1)   -2.28400000  *   2.53200000  *  18.46800000  *
   329       C(ATOM    329  C   UNK     1)   -2.75800000  *   2.00400000  *  17.23700000  *
   330       C(ATOM    330  C   UNK     1)   -3.33600000  *   0.70600000  *  17.23700000  *
   331       C(ATOM    331  C   UNK     1)   -3.41000000  *   0.00000000  *  18.46800000  *
   332       C(ATOM    332  C   UNK     1)   -3.11300000  *  -1.39000000  *  18.46800000  *
   333       C(ATOM    333  C   UNK     1)   -2.75800000  *  -2.00400000  *  17.23700000  *
   334       C(ATOM    334  C   UNK     1)   -1.70200000  *  -2.95400000  *  17.23700000  *
   335       C(ATOM    335  C   UNK     1)   -1.05400000  *  -3.24300000  *  18.46800000  *
   336       C(ATOM    336  C   UNK     1)    0.36000000  *  -3.39100000  *  18.46800000  *
   337       C(ATOM    337  C   UNK     1)    1.05400000  *  -3.24300000  *  17.23700000  *
   338       C(ATOM    338  C   UNK     1)    2.28400000  *  -2.53200000  *  17.23700000  *
   339       C(ATOM    339  C   UNK     1)    2.75800000  *  -2.00400000  *  18.46800000  *
   340       C(ATOM    340  C   UNK     1)    3.33600000  *  -0.70600000  *  18.46800000  *
   341       C(ATOM    341  C   UNK     1)    3.41000000  *   0.00000000  *  19.69900000  *
   342       C(ATOM    342  C   UNK     1)    3.11300000  *   1.39000000  *  19.69900000  *
   343       C(ATOM    343  C   UNK     1)    2.75800000  *   2.00400000  *  20.93000000  *
   344       C(ATOM    344  C   UNK     1)    1.70200000  *   2.95400000  *  20.93000000  *
   345       C(ATOM    345  C   UNK     1)    1.05400000  *   3.24300000  *  19.69900000  *
   346       C(ATOM    346  C   UNK     1)   -0.36000000  *   3.39100000  *  19.69900000  *
   347       C(ATOM    347  C   UNK     1)   -1.05400000  *   3.24300000  *  20.93000000  *
   348       C(ATOM    348  C   UNK     1)   -2.28400000  *   2.53200000  *  20.93000000  *
   349       C(ATOM    349  C   UNK     1)   -2.75800000  *   2.00400000  *  19.69900000  *
   350       C(ATOM    350  C   UNK     1)   -3.33600000  *   0.70600000  *  19.69900000  *
   351       C(ATOM    351  C   UNK     1)   -3.41000000  *   0.00000000  *  20.93000000  *
   352       C(ATOM    352  C   UNK     1)   -3.11300000  *  -1.39000000  *  20.93000000  *
   353       C(ATOM    353  C   UNK     1)   -2.75800000  *  -2.00400000  *  19.69900000  *
   354       C(ATOM    354  C   UNK     1)   -1.70200000  *  -2.95400000  *  19.69900000  *
   355       C(ATOM    355  C   UNK     1)   -1.05400000  *  -3.24300000  *  20.93000000  *
   356       C(ATOM    356  C   UNK     1)    0.36000000  *  -3.39100000  *  20.93000000  *
   357       C(ATOM    357  C   UNK     1)    1.05400000  *  -3.24300000  *  19.69900000  *
   358       C(ATOM    358  C   UNK     1)    2.28400000  *  -2.53200000  *  19.69900000  *
   359       C(ATOM    359  C   UNK     1)    2.75800000  *  -2.00400000  *  20.93000000  *
   360       C(ATOM    360  C   UNK     1)    3.33600000  *  -0.70600000  *  20.93000000  *
   361       H(ATOM    361  H01 UNK     1)    3.71300000  *  -0.26300000  *  21.85200000  *
   362       H(ATOM    362  H02 UNK     1)    2.68000000  *  -2.58100000  *  21.85200000  *
   363       H(ATOM    363  H03 UNK     1)    3.28300000  *   1.75200000  *  21.85200000  *
   364       H(ATOM    364  H04 UNK     1)    1.39600000  *   3.44900000  *  21.85200000  *
   365       H(ATOM    365  H05 UNK     1)   -0.65300000  *   3.66500000  *  21.85200000  *
   366       H(ATOM    366  H06 UNK     1)   -2.85000000  *   2.39500000  *  21.85100000  *
   367       H(ATOM    367  H07 UNK     1)   -3.68800000  *   0.51200000  *  21.85100000  *
   368       H(ATOM    368  H08 UNK     1)   -3.15700000  *  -1.97000000  *  21.85200000  *
   369       H(ATOM    369  H09 UNK     1)   -1.62700000  *  -3.34900000  *  21.85100000  *
   370       H(ATOM    370  H10 UNK     1)    0.89800000  *  -3.61300000  *  21.85200000  *
   371       H(ATOM    371  H11 UNK     1)   -0.89800000  *   3.61300000  * -23.08300000  *
   372       H(ATOM    372  H12 UNK     1)    1.62700000  *   3.34900000  * -23.08200000  *
   373       H(ATOM    373  H13 UNK     1)    3.68800000  *  -0.51200000  * -23.08200000  *
   374       H(ATOM    374  H14 UNK     1)    3.15700000  *   1.97000000  * -23.08300000  *
   375       H(ATOM    375  H15 UNK     1)   -3.71300000  *   0.26300000  * -23.08300000  *
   376       H(ATOM    376  H16 UNK     1)   -2.68000000  *   2.58100000  * -23.08300000  *
   377       H(ATOM    377  H17 UNK     1)    2.85000000  *  -2.39500000  * -23.08200000  *
   378       H(ATOM    378  H18 UNK     1)    0.65300000  *  -3.66500000  * -23.08300000  *
   379       H(ATOM    379  H19 UNK     1)   -3.28300000  *  -1.75200000  * -23.08300000  *
   380       H(ATOM    380  H20 UNK     1)   -1.39600000  *  -3.44900000  * -23.08300000  *
 

     ===================== shared-memory parallel CPU Section ======================
     **                                                                           **
     **  MOPAC calculations will run in shared-memory parallel CPUs               **
     **                                                                           **
     **  Number of Threads =  6                                                   **
     **                                                                           **
     **                                                                           **
     **  For information on this work, see:                                       **
     **                                                                           **
     **  Maia, J.D.C., et al., J. Chem. Theory Comput. 2012, 8, 3072-3081.        **
     **        DOI: 10.1021/ct3004645.                                            **
     **                                                                           **
     ===================== shared-memory parallel CPU Section ======================
      


 General Reference for PM7:
 "Optimization of Parameters for Semiempirical Methods VI: More Modifications to the 
 NDDO Approximations and Re-optimization of Parameters", J. J. P. Stewart, J. Mol. Mod., 1:32, 19 (2013)
 http://www.springerlink.com/openurl.asp?genre=article&id=doi:10.1007/s00894-012-1667-x

           Empirical Formula: C360 H20  =   380 atoms


      Geometry optimization using L-BFGS

 PLS ESCF USING THE OLD LMOs:    12469.031285 KCAL/MOL

 ITER.      1 PLS= 0.727E+00           ENERGY   12077.88961 DELTAE    0.0000000
 ITER.      2 PLS= 0.959E+00           ENERGY    6224.90245 DELTAE-5852.9871603
 ITER.      3 PLS= 0.629E+00           ENERGY   -3285.16610 DELTAE-9510.0685491
 ITER.      4 PLS= 0.118E+01           ENERGY    2845.52276 DELTAE 6130.6888553
 ITER.      5 PLS= 0.157E+00           ENERGY    2817.50383 DELTAE  -28.0189276
 ITER.      6 PLS= 0.234E+00           ENERGY    2468.25964 DELTAE -349.2441885
 ITER.      7 PLS= 0.142E+00           ENERGY    2501.58169 DELTAE   33.3220454
 ITER.      8 PLS= 0.104E+00           ENERGY    2469.53361 DELTAE  -32.0480742
 ITER.      9 PLS= 0.889E-01           ENERGY    2285.57911 DELTAE -183.9545028
 ITER.     10 PLS= 0.226E+00           ENERGY    2405.73234 DELTAE  120.1532313
 ITER.     11 PLS= 0.375E-01           ENERGY    2400.01451 DELTAE   -5.7178339
 ITER.     12 PLS= 0.361E-01           ENERGY    2389.74906 DELTAE  -10.2654431
 ITER.     13 PLS= 0.682E-01           ENERGY    2388.17995 DELTAE   -1.5691142
 ITER.     14 PLS= 0.256E-01           ENERGY    2385.73833 DELTAE   -2.4416160
 ITER.     15 PLS= 0.500E-01           ENERGY    2375.96783 DELTAE   -9.7705025
 ITER.     16 PLS= 0.663E-01           ENERGY    2381.97900 DELTAE    6.0111671
 ITER.     17 PLS= 0.141E-01           ENERGY    2381.42000 DELTAE   -0.5590033
 ITER.     18 PLS= 0.149E-01           ENERGY    2379.16549 DELTAE   -2.2545084
 ITER.     19 PLS= 0.363E-01           ENERGY    2380.35701 DELTAE    1.1915185
 ITER.     20 PLS= 0.114E-01           ENERGY    2380.12389 DELTAE   -0.2331189
 ITER.     21 PLS= 0.113E-01           ENERGY    2378.98034 DELTAE   -1.1435509
 ITER.     22 PLS= 0.292E-01           ENERGY    2379.60906 DELTAE    0.6287253
 ITER.     23 PLS= 0.847E-02           ENERGY    2379.48578 DELTAE   -0.1232813
 ITER.     24 PLS= 0.851E-02           ENERGY    2378.85378 DELTAE   -0.6319983
 ITER.     25 PLS= 0.218E-01           ENERGY    2379.19817 DELTAE    0.3443918
 ITER.     26 PLS= 0.674E-02           ENERGY    2379.12426 DELTAE   -0.0739110
 ITER.     27 PLS= 0.646E-02           ENERGY    2379.06083 DELTAE   -0.0634362
 ITER.     28 PLS= 0.645E-02           ENERGY    2379.00472 DELTAE   -0.0561116
 ITER.     29 PLS= 0.629E-02           ENERGY    2378.95478 DELTAE   -0.0499334
 ITER.     30 PLS= 0.600E-02           ENERGY    2378.90993 DELTAE   -0.0448538
 ITER.     31 PLS= 0.572E-02           ENERGY    2378.86968 DELTAE   -0.0402517
 ITER.     32 PLS= 0.536E-02           ENERGY    2378.83375 DELTAE   -0.0359271
 ITER.     33 PLS= 0.504E-02           ENERGY    2378.80132 DELTAE   -0.0324333
 ITER.     34 PLS= 0.478E-02           ENERGY    2378.77209 DELTAE   -0.0292253
 ITER.     35 PLS= 0.449E-02           ENERGY    2378.74562 DELTAE   -0.0264667
 ITER.     36 PLS= 0.423E-02           ENERGY    2378.72167 DELTAE   -0.0239493
 ITER.     37 PLS= 0.403E-02           ENERGY    2378.70001 DELTAE   -0.0216619
 ITER.     38 PLS= 0.377E-02           ENERGY    2378.68046 DELTAE   -0.0195494
 ITER.     39 PLS= 0.357E-02           ENERGY    2378.66265 DELTAE   -0.0178130
 ITER.     40 PLS= 0.341E-02           ENERGY    2378.64650 DELTAE   -0.0161514
 ITER.     41 PLS= 0.320E-02           ENERGY    2378.63173 DELTAE   -0.0147720
 ITER.     42 PLS= 0.306E-02           ENERGY    2378.61835 DELTAE   -0.0133793
 ITER.     43 PLS= 0.293E-02           ENERGY    2378.60598 DELTAE   -0.0123715
 ITER.     44 PLS= 0.293E-02           ENERGY    2378.59473 DELTAE   -0.0112501
 ITER.     45 PLS= 0.277E-02           ENERGY    2378.58433 DELTAE   -0.0103974
 ITER.     46 PLS= 0.261E-02           ENERGY    2378.57480 DELTAE   -0.0095305
 ITER.     47 PLS= 0.249E-02           ENERGY    2378.56600 DELTAE   -0.0087996
 CYCLE:     1 TIME: 116.949 TIME LEFT:  2.00W  GRAD.:   478.947 HEAT:  2378.566
 ITER.      1 PLS= 0.240E-02           ENERGY    2376.37472 DELTAE   -2.1912781
 ITER.      2 PLS= 0.620E-02           ENERGY    2376.29044 DELTAE   -0.0842797
 ITER.      3 PLS= 0.453E-02           ENERGY    2376.26794 DELTAE   -0.0224982
 ITER.      4 PLS= 0.236E-02           ENERGY    2376.25693 DELTAE   -0.0110096
 CYCLE:     2 TIME:  13.938 TIME LEFT:  2.00W  GRAD.:   467.517 HEAT:  2376.257
 ITER.      1 PLS= 0.197E-02           ENERGY    2366.73651 DELTAE   -9.5204239
 ITER.      2 PLS= 0.236E+00           ENERGY    2339.67626 DELTAE  -27.0602499
 ITER.      3 PLS= 0.691E-01           ENERGY    2327.80670 DELTAE  -11.8695621
 ITER.      4 PLS= 0.626E-01           ENERGY    2328.24849 DELTAE    0.4417980
 ITER.      5 PLS= 0.337E-01           ENERGY    2326.24855 DELTAE   -1.9999460
 ITER.      6 PLS= 0.270E-01           ENERGY    2320.41049 DELTAE   -5.8380617
 ITER.      7 PLS= 0.510E-01           ENERGY    2323.28463 DELTAE    2.8741467
 ITER.      8 PLS= 0.118E-01           ENERGY    2322.81742 DELTAE   -0.4672168
 ITER.      9 PLS= 0.105E-01           ENERGY    2321.46764 DELTAE   -1.3497761
 ITER.     10 PLS= 0.210E-01           ENERGY    2322.05939 DELTAE    0.5917493
 CYCLE:     3 TIME:  30.539 TIME LEFT:  2.00W  GRAD.:   138.958 HEAT:  2322.059
 ITER.      1 PLS= 0.721E-02           ENERGY    2414.82858 DELTAE   92.7691904
 ITER.      2 PLS= 0.231E+00           ENERGY    2390.15435 DELTAE  -24.6742256
 ITER.      3 PLS= 0.107E+00           ENERGY    2379.72827 DELTAE  -10.4260811
 ITER.      4 PLS= 0.513E-01           ENERGY    2380.23651 DELTAE    0.5082356
 ITER.      5 PLS= 0.277E-01           ENERGY    2378.82983 DELTAE   -1.4066788
 ITER.      6 PLS= 0.218E-01           ENERGY    2375.91967 DELTAE   -2.9101581
 ITER.      7 PLS= 0.345E-01           ENERGY    2377.08580 DELTAE    1.1661239
 CYCLE:     4 TIME:  21.199 TIME LEFT:  2.00W  GRAD.:   503.573 HEAT:  2377.086
 ITER.      1 PLS= 0.101E-01           ENERGY    2372.42272 DELTAE   -4.6630742
 ITER.      2 PLS= 0.251E+00           ENERGY    2344.12815 DELTAE  -28.2945754
 ITER.      3 PLS= 0.231E+00           ENERGY    2325.54702 DELTAE  -18.5811265
 ITER.      4 PLS= 0.118E+00           ENERGY    2328.27194 DELTAE    2.7249157
 ITER.      5 PLS= 0.327E-01           ENERGY    2326.46788 DELTAE   -1.8040591
 ITER.      6 PLS= 0.263E-01           ENERGY    2324.11836 DELTAE   -2.3495165
 ITER.      7 PLS= 0.319E-01           ENERGY    2324.30201 DELTAE    0.1836463
 ITER.      8 PLS= 0.145E-01           ENERGY    2323.85341 DELTAE   -0.4485952
 ITER.      9 PLS= 0.119E-01           ENERGY    2322.30567 DELTAE   -1.5477391
 ITER.     10 PLS= 0.236E-01           ENERGY    2323.09847 DELTAE    0.7927973
 ITER.     11 PLS= 0.650E-02           ENERGY    2322.97035 DELTAE   -0.1281211
 ITER.     12 PLS= 0.610E-02           ENERGY    2322.56720 DELTAE   -0.4031483
 ITER.     13 PLS= 0.128E-01           ENERGY    2322.75087 DELTAE    0.1836685
 ITER.     14 PLS= 0.421E-02           ENERGY    2322.70333 DELTAE   -0.0475377
 ITER.     15 PLS= 0.402E-02           ENERGY    2322.66601 DELTAE   -0.0373162
 ITER.     16 PLS= 0.377E-02           ENERGY    2322.63565 DELTAE   -0.0303606
 ITER.     17 PLS= 0.358E-02           ENERGY    2322.61120 DELTAE   -0.0244504
 CYCLE:     5 TIME:  49.340 TIME LEFT:  2.00W  GRAD.:   153.290 HEAT:  2322.611
 ITER.      1 PLS= 0.321E-02           ENERGY    2319.51261 DELTAE   -3.0985919
 ITER.      2 PLS= 0.647E-01           ENERGY    2318.01262 DELTAE   -1.4999933
 ITER.      3 PLS= 0.387E-01           ENERGY    2317.51964 DELTAE   -0.4929755
 ITER.      4 PLS= 0.167E-01           ENERGY    2317.53975 DELTAE    0.0201089
 ITER.      5 PLS= 0.751E-02           ENERGY    2317.47635 DELTAE   -0.0634026
 ITER.      6 PLS= 0.594E-02           ENERGY    2317.43089 DELTAE   -0.0454570
 ITER.      7 PLS= 0.480E-02           ENERGY    2317.39577 DELTAE   -0.0351253
 CYCLE:     6 TIME:  21.797 TIME LEFT:  2.00W  GRAD.:    68.991 HEAT:  2317.396
 ITER.      1 PLS= 0.412E-02           ENERGY    2315.68391 DELTAE   -1.7118606
 ITER.      2 PLS= 0.261E-01           ENERGY    2314.87986 DELTAE   -0.8040480
 ITER.      3 PLS= 0.118E-01           ENERGY    2314.58468 DELTAE   -0.2951778
 ITER.      4 PLS= 0.944E-02           ENERGY    2314.56081 DELTAE   -0.0238724
 ITER.      5 PLS= 0.597E-02           ENERGY    2314.49639 DELTAE   -0.0644168
 ITER.      6 PLS= 0.526E-02           ENERGY    2314.44636 DELTAE   -0.0500339
 ITER.      7 PLS= 0.476E-02           ENERGY    2314.40572 DELTAE   -0.0406350
 CYCLE:     7 TIME:  21.801 TIME LEFT:  2.00W  GRAD.:    60.134 HEAT:  2314.406
 ITER.      1 PLS= 0.426E-02           ENERGY    2318.90567 DELTAE    4.4999470
 ITER.      2 PLS= 0.907E-01           ENERGY    2312.07715 DELTAE   -6.8285172
 ITER.      3 PLS= 0.395E-01           ENERGY    2309.40738 DELTAE   -2.6697748
 ITER.      4 PLS= 0.317E-01           ENERGY    2309.77483 DELTAE    0.3674540
 ITER.      5 PLS= 0.154E-01           ENERGY    2309.50280 DELTAE   -0.2720332
 ITER.      6 PLS= 0.130E-01           ENERGY    2308.61889 DELTAE   -0.8839115
 ITER.      7 PLS= 0.283E-01           ENERGY    2309.05165 DELTAE    0.4327605
 ITER.      8 PLS= 0.610E-02           ENERGY    2308.96973 DELTAE   -0.0819155
 ITER.      9 PLS= 0.565E-02           ENERGY    2308.90467 DELTAE   -0.0650643
 ITER.     10 PLS= 0.515E-02           ENERGY    2308.85146 DELTAE   -0.0532093
 CYCLE:     8 TIME:  30.785 TIME LEFT:  2.00W  GRAD.:    63.850 HEAT:  2308.851
 ITER.      1 PLS= 0.487E-02           ENERGY    2312.46129 DELTAE    3.6098274
 ITER.      2 PLS= 0.604E-01           ENERGY    2309.69502 DELTAE   -2.7662684
 ITER.      3 PLS= 0.468E-01           ENERGY    2308.65423 DELTAE   -1.0407850
 ITER.      4 PLS= 0.190E-01           ENERGY    2308.76904 DELTAE    0.1148061
 ITER.      5 PLS= 0.591E-02           ENERGY    2308.67572 DELTAE   -0.0933198
 ITER.      6 PLS= 0.481E-02           ENERGY    2308.62115 DELTAE   -0.0545678
 ITER.      7 PLS= 0.395E-02           ENERGY    2308.58661 DELTAE   -0.0345370
 ITER.      8 PLS= 0.335E-02           ENERGY    2308.56417 DELTAE   -0.0224444
 ITER.      9 PLS= 0.268E-02           ENERGY    2308.54895 DELTAE   -0.0152153
 ITER.     10 PLS= 0.225E-02           ENERGY    2308.53859 DELTAE   -0.0103644
 ITER.     11 PLS= 0.190E-02           ENERGY    2308.53150 DELTAE   -0.0070910
 CYCLE:     9 TIME:  33.016 TIME LEFT:  2.00W  GRAD.:    82.957 HEAT:  2308.531
 ITER.      1 PLS= 0.159E-02           ENERGY    2308.05055 DELTAE   -0.4809482
 ITER.      2 PLS= 0.233E-01           ENERGY    2307.37428 DELTAE   -0.6762682
 ITER.      3 PLS= 0.191E-01           ENERGY    2307.16434 DELTAE   -0.2099430
 ITER.      4 PLS= 0.854E-02           ENERGY    2307.19120 DELTAE    0.0268572
 ITER.      5 PLS= 0.261E-02           ENERGY    2307.17126 DELTAE   -0.0199407
 ITER.      6 PLS= 0.225E-02           ENERGY    2307.15891 DELTAE   -0.0123492
 ITER.      7 PLS= 0.193E-02           ENERGY    2307.15060 DELTAE   -0.0083088
 CYCLE:    10 TIME:  21.336 TIME LEFT:  2.00W  GRAD.:    21.717 HEAT:  2307.151
 ITER.      1 PLS= 0.167E-02           ENERGY    2307.11128 DELTAE   -0.0393167
 ITER.      2 PLS= 0.113E-01           ENERGY    2306.89820 DELTAE   -0.2130814
 ITER.      3 PLS= 0.809E-02           ENERGY    2306.86337 DELTAE   -0.0348294
 ITER.      4 PLS= 0.547E-02           ENERGY    2306.86417 DELTAE    0.0007999
 ITER.      5 PLS= 0.205E-02           ENERGY    2306.85868 DELTAE   -0.0054888
 CYCLE:    11 TIME:  16.734 TIME LEFT:  2.00W  GRAD.:    18.266 HEAT:  2306.859
 ITER.      1 PLS= 0.176E-02           ENERGY    2307.35101 DELTAE    0.4923277
 ITER.      2 PLS= 0.523E-01           ENERGY    2306.44691 DELTAE   -0.9041019
 ITER.      3 PLS= 0.215E-01           ENERGY    2306.08080 DELTAE   -0.3661080
 ITER.      4 PLS= 0.178E-01           ENERGY    2306.13082 DELTAE    0.0500193
 ITER.      5 PLS= 0.522E-02           ENERGY    2306.09092 DELTAE   -0.0399035
 ITER.      6 PLS= 0.429E-02           ENERGY    2306.06454 DELTAE   -0.0263791
 ITER.      7 PLS= 0.368E-02           ENERGY    2306.04541 DELTAE   -0.0191231
 CYCLE:    12 TIME:  21.789 TIME LEFT:  2.00W  GRAD.:    26.488 HEAT:  2306.045
 ITER.      1 PLS= 0.319E-02           ENERGY    2306.28172 DELTAE    0.2363082
 ITER.      2 PLS= 0.225E-01           ENERGY    2305.87498 DELTAE   -0.4067444
 ITER.      3 PLS= 0.916E-02           ENERGY    2305.76487 DELTAE   -0.1101075
 ITER.      4 PLS= 0.704E-02           ENERGY    2305.76865 DELTAE    0.0037834
 ITER.      5 PLS= 0.398E-02           ENERGY    2305.75387 DELTAE   -0.0147797
 ITER.      6 PLS= 0.337E-02           ENERGY    2305.74390 DELTAE   -0.0099765
 ITER.      7 PLS= 0.279E-02           ENERGY    2305.73681 DELTAE   -0.0070835
 CYCLE:    13 TIME:  21.531 TIME LEFT:  2.00W  GRAD.:    26.082 HEAT:  2305.737
 ITER.      1 PLS= 0.235E-02           ENERGY    2305.77213 DELTAE    0.0353187
 ITER.      2 PLS= 0.126E-01           ENERGY    2305.52072 DELTAE   -0.2514085
 ITER.      3 PLS= 0.670E-02           ENERGY    2305.47559 DELTAE   -0.0451347
 ITER.      4 PLS= 0.395E-02           ENERGY    2305.47613 DELTAE    0.0005419
 ITER.      5 PLS= 0.211E-02           ENERGY    2305.46902 DELTAE   -0.0071114
 CYCLE:    14 TIME:  16.664 TIME LEFT:  2.00W  GRAD.:    15.637 HEAT:  2305.469
 ITER.      1 PLS= 0.182E-02           ENERGY    2305.50894 DELTAE    0.0399193
 ITER.      2 PLS= 0.102E-01           ENERGY    2305.24116 DELTAE   -0.2677821
 ITER.      3 PLS= 0.659E-02           ENERGY    2305.19542 DELTAE   -0.0457313
 ITER.      4 PLS= 0.326E-02           ENERGY    2305.19571 DELTAE    0.0002856
 ITER.      5 PLS= 0.205E-02           ENERGY    2305.18890 DELTAE   -0.0068082
 CYCLE:    15 TIME:  16.559 TIME LEFT:  2.00W  GRAD.:    12.709 HEAT:  2305.189
 ITER.      1 PLS= 0.179E-02           ENERGY    2305.21702 DELTAE    0.0281208
 ITER.      2 PLS= 0.119E-01           ENERGY    2304.93570 DELTAE   -0.2813183
 ITER.      3 PLS= 0.606E-02           ENERGY    2304.87376 DELTAE   -0.0619445
 ITER.      4 PLS= 0.526E-02           ENERGY    2304.87751 DELTAE    0.0037486
 ITER.      5 PLS= 0.257E-02           ENERGY    2304.86964 DELTAE   -0.0078681
 CYCLE:    16 TIME:  16.957 TIME LEFT:  2.00W  GRAD.:    17.890 HEAT:  2304.870
 ITER.      1 PLS= 0.217E-02           ENERGY    2305.01390 DELTAE    0.1442622
 ITER.      2 PLS= 0.232E-01           ENERGY    2304.61395 DELTAE   -0.3999507
 ITER.      3 PLS= 0.115E-01           ENERGY    2304.49453 DELTAE   -0.1194212
 ITER.      4 PLS= 0.977E-02           ENERGY    2304.50452 DELTAE    0.0099899
 ITER.      5 PLS= 0.211E-01           ENERGY    2304.49509 DELTAE   -0.0094358
 CYCLE:    17 TIME:  16.109 TIME LEFT:  2.00W  GRAD.:    26.172 HEAT:  2304.495
 ITER.      1 PLS= 0.152E-01           ENERGY    2304.45387 DELTAE   -0.0412175
 ITER.      2 PLS= 0.220E-01           ENERGY    2304.13596 DELTAE   -0.3179126
 ITER.      3 PLS= 0.120E-01           ENERGY    2304.04170 DELTAE   -0.0942529
 ITER.      4 PLS= 0.102E-01           ENERGY    2304.05277 DELTAE    0.0110700
 ITER.      5 PLS= 0.498E-02           ENERGY    2304.04597 DELTAE   -0.0068069
 ITER.      6 PLS= 0.345E-02           ENERGY    2304.04261 DELTAE   -0.0033574
 CYCLE:    18 TIME:  18.488 TIME LEFT:  2.00W  GRAD.:    17.852 HEAT:  2304.043
 ITER.      1 PLS= 0.243E-02           ENERGY    2304.32345 DELTAE    0.2808426
 ITER.      2 PLS= 0.338E-01           ENERGY    2303.81245 DELTAE   -0.5109980
 ITER.      3 PLS= 0.177E-01           ENERGY    2303.61321 DELTAE   -0.1992402
 ITER.      4 PLS= 0.154E-01           ENERGY    2303.63915 DELTAE    0.0259352
 ITER.      5 PLS= 0.736E-02           ENERGY    2303.62527 DELTAE   -0.0138798
 ITER.      6 PLS= 0.512E-02           ENERGY    2303.61876 DELTAE   -0.0065106
 ITER.      7 PLS= 0.356E-02           ENERGY    2303.61508 DELTAE   -0.0036753
 CYCLE:    19 TIME:  20.293 TIME LEFT:  2.00W  GRAD.:    15.215 HEAT:  2303.615
 ITER.      1 PLS= 0.249E-02           ENERGY    2303.95382 DELTAE    0.3387370
 ITER.      2 PLS= 0.261E-01           ENERGY    2303.51559 DELTAE   -0.4382313
 ITER.      3 PLS= 0.137E-01           ENERGY    2303.37557 DELTAE   -0.1400177
 ITER.      4 PLS= 0.115E-01           ENERGY    2303.38955 DELTAE    0.0139770
 ITER.      5 PLS= 0.575E-02           ENERGY    2303.37979 DELTAE   -0.0097555
 ITER.      6 PLS= 0.400E-02           ENERGY    2303.37504 DELTAE   -0.0047516
 CYCLE:    20 TIME:  18.637 TIME LEFT:  2.00W  GRAD.:    23.666 HEAT:  2303.375
 ITER.      1 PLS= 0.279E-02           ENERGY    2303.47502 DELTAE    0.0999794
 ITER.      2 PLS= 0.125E-01           ENERGY    2303.22484 DELTAE   -0.2501771
 ITER.      3 PLS= 0.679E-02           ENERGY    2303.16982 DELTAE   -0.0550196
 ITER.      4 PLS= 0.519E-02           ENERGY    2303.17767 DELTAE    0.0078504
 ITER.      5 PLS= 0.868E-02           ENERGY    2303.17504 DELTAE   -0.0026310
 CYCLE:    21 TIME:  15.941 TIME LEFT:  2.00W  GRAD.:    12.380 HEAT:  2303.175
 ITER.      1 PLS= 0.672E-02           ENERGY    2303.34245 DELTAE    0.1674105
 ITER.      2 PLS= 0.155E-01           ENERGY    2303.07139 DELTAE   -0.2710672
 ITER.      3 PLS= 0.748E-02           ENERGY    2303.00878 DELTAE   -0.0626038
 ITER.      4 PLS= 0.603E-02           ENERGY    2303.01560 DELTAE    0.0068143
 ITER.      5 PLS= 0.289E-02           ENERGY    2303.01121 DELTAE   -0.0043820
 CYCLE:    22 TIME:  15.859 TIME LEFT:  2.00W  GRAD.:     8.621 HEAT:  2303.011
 ITER.      1 PLS= 0.199E-02           ENERGY    2303.18156 DELTAE    0.1703430
 ITER.      2 PLS= 0.141E-01           ENERGY    2302.94675 DELTAE   -0.2348028
 ITER.      3 PLS= 0.592E-02           ENERGY    2302.89944 DELTAE   -0.0473105
 ITER.      4 PLS= 0.476E-02           ENERGY    2302.90573 DELTAE    0.0062892
 ITER.      5 PLS= 0.224E-02           ENERGY    2302.90339 DELTAE   -0.0023456
 CYCLE:    23 TIME:  16.887 TIME LEFT:  2.00W  GRAD.:    11.339 HEAT:  2302.903
 ITER.      1 PLS= 0.153E-02           ENERGY    2303.06905 DELTAE    0.1656668
 ITER.      2 PLS= 0.163E-01           ENERGY    2302.84617 DELTAE   -0.2228854
 ITER.      3 PLS= 0.768E-02           ENERGY    2302.79609 DELTAE   -0.0500756
 ITER.      4 PLS= 0.548E-02           ENERGY    2302.80134 DELTAE    0.0052504
 ITER.      5 PLS= 0.262E-02           ENERGY    2302.79768 DELTAE   -0.0036584
 CYCLE:    24 TIME:  16.484 TIME LEFT:  2.00W  GRAD.:     6.629 HEAT:  2302.798
 ITER.      1 PLS= 0.188E-02           ENERGY    2302.92953 DELTAE    0.1318467
 ITER.      2 PLS= 0.504E-02           ENERGY    2302.78137 DELTAE   -0.1481657
 ITER.      3 PLS= 0.405E-02           ENERGY    2302.76502 DELTAE   -0.0163488
 ITER.      4 PLS= 0.185E-02           ENERGY    2302.76859 DELTAE    0.0035682
 ITER.      5 PLS= 0.100E-02           ENERGY    2302.76863 DELTAE    0.0000477
 CYCLE:    25 TIME:  17.023 TIME LEFT:  2.00W  GRAD.:     3.522 HEAT:  2302.769
 ITER.      1 PLS= 0.986E-03           ENERGY    2302.99541 DELTAE    0.2267768
 ITER.      2 PLS= 0.163E-01           ENERGY    2302.78830 DELTAE   -0.2071063
 ITER.      3 PLS= 0.680E-02           ENERGY    2302.74566 DELTAE   -0.0426385
 ITER.      4 PLS= 0.575E-02           ENERGY    2302.75201 DELTAE    0.0063472
 ITER.      5 PLS= 0.290E-02           ENERGY    2302.75042 DELTAE   -0.0015914
 CYCLE:    26 TIME:  16.105 TIME LEFT:  2.00W  GRAD.:     6.025 HEAT:  2302.750
 ITER.      1 PLS= 0.200E-02           ENERGY    2302.92309 DELTAE    0.1726684
 ITER.      2 PLS= 0.634E-02           ENERGY    2302.76412 DELTAE   -0.1589664
 ITER.      3 PLS= 0.425E-02           ENERGY    2302.74403 DELTAE   -0.0200968
 ITER.      4 PLS= 0.203E-02           ENERGY    2302.74829 DELTAE    0.0042603
 ITER.      5 PLS= 0.847E-03           ENERGY    2302.74812 DELTAE   -0.0001628
 CYCLE:    27 TIME:  16.645 TIME LEFT:  2.00W  GRAD.:     8.022 HEAT:  2302.748
 ITER.      1 PLS= 0.892E-03           ENERGY    2302.88530 DELTAE    0.1371729
 ITER.      2 PLS= 0.502E-02           ENERGY    2302.74180 DELTAE   -0.1434940
 ITER.      3 PLS= 0.406E-02           ENERGY    2302.72737 DELTAE   -0.0144295
 ITER.      4 PLS= 0.143E-02           ENERGY    2302.73110 DELTAE    0.0037235
 ITER.      5 PLS= 0.847E-03           ENERGY    2302.73135 DELTAE    0.0002496
 CYCLE:    28 TIME:  16.824 TIME LEFT:  2.00W  GRAD.:     2.399 HEAT:  2302.731
 ITER.      1 PLS= 0.886E-03           ENERGY    2302.87572 DELTAE    0.1443718
 ITER.      2 PLS= 0.502E-02           ENERGY    2302.73422 DELTAE   -0.1414950
 ITER.      3 PLS= 0.412E-02           ENERGY    2302.71996 DELTAE   -0.0142602
 ITER.      4 PLS= 0.148E-02           ENERGY    2302.72346 DELTAE    0.0034930
 ITER.      5 PLS= 0.842E-03           ENERGY    2302.72372 DELTAE    0.0002677
 CYCLE:    29 TIME:  17.105 TIME LEFT:  2.00W  GRAD.:     2.129 HEAT:  2302.724
 ITER.      1 PLS= 0.884E-03           ENERGY    2302.86595 DELTAE    0.1422311
 ITER.      2 PLS= 0.513E-02           ENERGY    2302.72256 DELTAE   -0.1433929
 ITER.      3 PLS= 0.410E-02           ENERGY    2302.70695 DELTAE   -0.0156100
 ITER.      4 PLS= 0.160E-02           ENERGY    2302.71044 DELTAE    0.0034905
 ITER.      5 PLS= 0.847E-03           ENERGY    2302.71028 DELTAE   -0.0001617
 CYCLE:    30 TIME:  17.277 TIME LEFT:  2.00W  GRAD.:     3.697 HEAT:  2302.710
 ITER.      1 PLS= 0.889E-03           ENERGY    2302.85531 DELTAE    0.1450300
 ITER.      2 PLS= 0.532E-02           ENERGY    2302.70491 DELTAE   -0.1503950
 ITER.      3 PLS= 0.420E-02           ENERGY    2302.68662 DELTAE   -0.0182943
 ITER.      4 PLS= 0.217E-02           ENERGY    2302.69044 DELTAE    0.0038193
 ITER.      5 PLS= 0.105E-02           ENERGY    2302.69022 DELTAE   -0.0002208
 CYCLE:    31 TIME:  16.477 TIME LEFT:  2.00W  GRAD.:     4.265 HEAT:  2302.690
 ITER.      1 PLS= 0.874E-03           ENERGY    2302.83264 DELTAE    0.1424221
 ITER.      2 PLS= 0.509E-02           ENERGY    2302.69133 DELTAE   -0.1413105
 ITER.      3 PLS= 0.410E-02           ENERGY    2302.67696 DELTAE   -0.0143755
 ITER.      4 PLS= 0.131E-02           ENERGY    2302.68043 DELTAE    0.0034767
 ITER.      5 PLS= 0.980E-03           ENERGY    2302.68055 DELTAE    0.0001223
 CYCLE:    32 TIME:  16.520 TIME LEFT:  2.00W  GRAD.:     2.593 HEAT:  2302.681
 ITER.      1 PLS= 0.925E-03           ENERGY    2302.82286 DELTAE    0.1423034
 ITER.      2 PLS= 0.508E-02           ENERGY    2302.68168 DELTAE   -0.1411816
 ITER.      3 PLS= 0.418E-02           ENERGY    2302.66728 DELTAE   -0.0143925
 ITER.      4 PLS= 0.127E-02           ENERGY    2302.67073 DELTAE    0.0034502
 ITER.      5 PLS= 0.858E-03           ENERGY    2302.67078 DELTAE    0.0000481
 CYCLE:    33 TIME:  16.934 TIME LEFT:  2.00W  GRAD.:     2.704 HEAT:  2302.671
 ITER.      1 PLS= 0.889E-03           ENERGY    2302.84039 DELTAE    0.1696074
 ITER.      2 PLS= 0.502E-02           ENERGY    2302.68524 DELTAE   -0.1551529
 ITER.      3 PLS= 0.415E-02           ENERGY    2302.67025 DELTAE   -0.0149909
 ITER.      4 PLS= 0.113E-02           ENERGY    2302.67387 DELTAE    0.0036211
 ITER.      5 PLS= 0.850E-03           ENERGY    2302.67409 DELTAE    0.0002208
 CYCLE:    34 TIME:  17.059 TIME LEFT:  2.00W  GRAD.:     3.822 HEAT:  2302.674
 ITER.      1 PLS= 0.939E-03           ENERGY    2302.83058 DELTAE    0.1564952
 ITER.      2 PLS= 0.493E-02           ENERGY    2302.66454 DELTAE   -0.1660437
 ITER.      3 PLS= 0.417E-02           ENERGY    2302.64887 DELTAE   -0.0156694
 ITER.      4 PLS= 0.119E-02           ENERGY    2302.65248 DELTAE    0.0036071
 ITER.      5 PLS= 0.881E-03           ENERGY    2302.65264 DELTAE    0.0001642
 CYCLE:    35 TIME:  16.961 TIME LEFT:  2.00W  GRAD.:     2.650 HEAT:  2302.653
 ITER.      1 PLS= 0.881E-03           ENERGY    2302.82826 DELTAE    0.1756172
 ITER.      2 PLS= 0.496E-02           ENERGY    2302.66996 DELTAE   -0.1582939
 ITER.      3 PLS= 0.409E-02           ENERGY    2302.65532 DELTAE   -0.0146462
 ITER.      4 PLS= 0.109E-02           ENERGY    2302.65902 DELTAE    0.0037062
 ITER.      5 PLS= 0.965E-03           ENERGY    2302.65930 DELTAE    0.0002794
 CYCLE:    36 TIME:  16.918 TIME LEFT:  2.00W  GRAD.:     2.836 HEAT:  2302.659
 ITER.      1 PLS= 0.900E-03           ENERGY    2302.78684 DELTAE    0.1275386
 ITER.      2 PLS= 0.493E-02           ENERGY    2302.64698 DELTAE   -0.1398579
 ITER.      3 PLS= 0.409E-02           ENERGY    2302.63332 DELTAE   -0.0136604
 ITER.      4 PLS= 0.110E-02           ENERGY    2302.63685 DELTAE    0.0035263
 ITER.      5 PLS= 0.885E-03           ENERGY    2302.63720 DELTAE    0.0003504
 CYCLE:    37 TIME:  17.074 TIME LEFT:  2.00W  GRAD.:     2.402 HEAT:  2302.637
 ITER.      1 PLS= 0.887E-03           ENERGY    2302.78054 DELTAE    0.1433383
 ITER.      2 PLS= 0.496E-02           ENERGY    2302.64234 DELTAE   -0.1381967
 ITER.      3 PLS= 0.411E-02           ENERGY    2302.62865 DELTAE   -0.0136896
 ITER.      4 PLS= 0.118E-02           ENERGY    2302.63224 DELTAE    0.0035832
 ITER.      5 PLS= 0.866E-03           ENERGY    2302.63254 DELTAE    0.0003054
 CYCLE:    38 TIME:  16.750 TIME LEFT:  2.00W  GRAD.:     2.497 HEAT:  2302.633
 ITER.      1 PLS= 0.893E-03           ENERGY    2302.78058 DELTAE    0.1480436
 ITER.      2 PLS= 0.498E-02           ENERGY    2302.63618 DELTAE   -0.1444096
 ITER.      3 PLS= 0.410E-02           ENERGY    2302.62036 DELTAE   -0.0158150
 ITER.      4 PLS= 0.191E-02           ENERGY    2302.62440 DELTAE    0.0040377
 ITER.      5 PLS= 0.876E-03           ENERGY    2302.62468 DELTAE    0.0002782
 CYCLE:    39 TIME:  17.070 TIME LEFT:  2.00W  GRAD.:     4.254 HEAT:  2302.625
 ITER.      1 PLS= 0.888E-03           ENERGY    2302.77090 DELTAE    0.1462223
 ITER.      2 PLS= 0.504E-02           ENERGY    2302.63076 DELTAE   -0.1401406
 ITER.      3 PLS= 0.415E-02           ENERGY    2302.61596 DELTAE   -0.0148011
 ITER.      4 PLS= 0.132E-02           ENERGY    2302.61952 DELTAE    0.0035628
 ITER.      5 PLS= 0.856E-03           ENERGY    2302.61965 DELTAE    0.0001343
 CYCLE:    40 TIME:  17.148 TIME LEFT:  2.00W  GRAD.:     2.994 HEAT:  2302.620
 ITER.      1 PLS= 0.903E-03           ENERGY    2302.76143 DELTAE    0.1417799
 ITER.      2 PLS= 0.502E-02           ENERGY    2302.62402 DELTAE   -0.1374107
 ITER.      3 PLS= 0.420E-02           ENERGY    2302.61064 DELTAE   -0.0133826
 ITER.      4 PLS= 0.116E-02           ENERGY    2302.61399 DELTAE    0.0033461
 ITER.      5 PLS= 0.989E-03           ENERGY    2302.61433 DELTAE    0.0003483
 CYCLE:    41 TIME:  16.570 TIME LEFT:  2.00W  GRAD.:     2.068 HEAT:  2302.614
 ITER.      1 PLS= 0.101E-02           ENERGY    2302.76131 DELTAE    0.1469712
 ITER.      2 PLS= 0.502E-02           ENERGY    2302.62095 DELTAE   -0.1403579
 ITER.      3 PLS= 0.411E-02           ENERGY    2302.60620 DELTAE   -0.0147496
 ITER.      4 PLS= 0.124E-02           ENERGY    2302.60980 DELTAE    0.0035994
 ITER.      5 PLS= 0.970E-03           ENERGY    2302.61001 DELTAE    0.0002128
 CYCLE:    42 TIME:  16.406 TIME LEFT:  2.00W  GRAD.:     1.965 HEAT:  2302.610
 ITER.      1 PLS= 0.102E-02           ENERGY    2302.75738 DELTAE    0.1473729
 ITER.      2 PLS= 0.501E-02           ENERGY    2302.61719 DELTAE   -0.1401893
 ITER.      3 PLS= 0.416E-02           ENERGY    2302.60257 DELTAE   -0.0146284
 ITER.      4 PLS= 0.137E-02           ENERGY    2302.60616 DELTAE    0.0035941
 ITER.      5 PLS= 0.969E-03           ENERGY    2302.60640 DELTAE    0.0002370
 CYCLE:    43 TIME:  16.891 TIME LEFT:  2.00W  GRAD.:     4.391 HEAT:  2302.606
 ITER.      1 PLS= 0.102E-02           ENERGY    2302.74708 DELTAE    0.1406878
 ITER.      2 PLS= 0.494E-02           ENERGY    2302.60945 DELTAE   -0.1376361
 ITER.      3 PLS= 0.410E-02           ENERGY    2302.59601 DELTAE   -0.0134358
 ITER.      4 PLS= 0.110E-02           ENERGY    2302.59958 DELTAE    0.0035676
 ITER.      5 PLS= 0.971E-03           ENERGY    2302.59997 DELTAE    0.0003880
 CYCLE:    44 TIME:  16.895 TIME LEFT:  2.00W  GRAD.:     1.149 HEAT:  2302.600
 ITER.      1 PLS= 0.102E-02           ENERGY    2302.74395 DELTAE    0.1439766
 ITER.      2 PLS= 0.496E-02           ENERGY    2302.60677 DELTAE   -0.1371784
 ITER.      3 PLS= 0.416E-02           ENERGY    2302.59401 DELTAE   -0.0127576
 ITER.      4 PLS= 0.112E-02           ENERGY    2302.59735 DELTAE    0.0033403
 ITER.      5 PLS= 0.958E-03           ENERGY    2302.59768 DELTAE    0.0003282
 CYCLE:    45 TIME:  16.652 TIME LEFT:  2.00W  GRAD.:     0.759 HEAT:  2302.598

 -------------------------------------------------------------------------------
 START_RES=(1)  PM7 DUMP=4320 XYZ EPS=78.40 RSOLV=1.30 LBFGS MOZYME PDBOUT +
 CHARGE=0 LET DDMIN=0.0 T=2W PL ITRY=500
 Carbon nanotube 5x5 18 units: Geometry Optimization



     HERBERTS TEST WAS SATISFIED IN BFGS                      
     SCF FIELD WAS ACHIEVED                                   


                              PM7 CALCULATION
                                                       MOPAC2012 (Version: 15.027L)
                                                       Mon Mar  2 18:07:08 2015
                                                       No. of days left = 331




          FINAL HEAT OF FORMATION =       2302.59768 KCAL/MOL =    9634.06868 KJ/MOL
          VAN DER WAALS AREA      =       2135.04 SQUARE ANGSTROMS


          TOTAL ENERGY            =     -44464.22757 EV
          ELECTRONIC ENERGY       =   -1526541.47045 EV
          CORE-CORE REPULSION     =    1482045.47698 EV
          DIELECTRIC ENERGY       =         -1.01127 EV
          COSMO AREA              =       2135.04 SQUARE ANGSTROMS
          COSMO VOLUME            =       3738.44 CUBIC ANGSTROMS

          GRADIENT NORM           =          0.75932
          NO. OF FILLED LEVELS    =        730
          MOLECULAR WEIGHT        =       4344.118

          MOLECULAR DIMENSIONS (Angstroms)

            Atom       Atom       Distance
            H   370    H   371    45.46662
            H   378    H   365    15.05945
            H   367    H   374     7.35985


          SCF CALCULATIONS        =         45
 
          WALL-CLOCK TIME         = 16 MINUTES AND  2.961 SECONDS
          COMPUTATION TIME        = 25 MINUTES AND 10.763 SECONDS




   ATOM                 CHEMICAL                   X               Y               Z
  NUMBER                 SYMBOL               (ANGSTROMS)     (ANGSTROMS)     (ANGSTROMS)
 
     1       C(ATOM      1  C   UNK     1)    3.52281963  *   0.05206450  * -22.10653244  *
     2       C(ATOM      2  C   UNK     1)    3.23814698  *   1.38891469  * -22.10647287  *
     3       C(ATOM      3  C   UNK     1)    2.77880876  *   2.01468905  * -20.90415473  *
     4       C(ATOM      4  C   UNK     1)    1.71056792  *   2.97555512  * -20.90413101  *
     5       C(ATOM      5  C   UNK     1)    1.03997588  *   3.36635111  * -22.10648066  *
     6       C(ATOM      6  C   UNK     1)   -0.31941517  *   3.50881990  * -22.10647526  *
     7       C(ATOM      7  C   UNK     1)   -1.05660590  *   3.26532049  * -20.90422918  *
     8       C(ATOM      8  C   UNK     1)   -2.30063808  *   2.54657390  * -20.90432080  *
     9       C(ATOM      9  C   UNK     1)   -2.87951480  *   2.02959337  * -22.10667134  *
    10       C(ATOM     10  C   UNK     1)   -3.43496367  *   0.78075268  * -22.10671732  *
    11       C(ATOM     11  C   UNK     1)   -3.43091363  *   0.00433952  * -20.90454267  *
    12       C(ATOM     12  C   UNK     1)   -3.13153101  *  -1.40096292  * -20.90466605  *
    13       C(ATOM     13  C   UNK     1)   -2.81871110  *  -2.11121352  * -22.10697811  *
    14       C(ATOM     14  C   UNK     1)   -1.80317864  *  -3.02606900  * -22.10692233  *
    15       C(ATOM     15  C   UNK     1)   -1.06382716  *  -3.26256087  * -20.90462387  *
    16       C(ATOM     16  C   UNK     1)    0.36522058  *  -3.41209741  * -20.90459356  *
    17       C(ATOM     17  C   UNK     1)    1.13741719  *  -3.33383599  * -22.10693217  *
    18       C(ATOM     18  C   UNK     1)    2.32073948  *  -2.64963524  * -22.10687017  *
    19       C(ATOM     19  C   UNK     1)    2.77398280  *  -2.01947396  * -20.90449882  *
    20       C(ATOM     20  C   UNK     1)    3.35806664  *  -0.70668075  * -20.90435356  *
    21       C(ATOM     21  C   UNK     1)    3.40291471  *  -0.00638694  * -19.68960367  *
    22       C(ATOM     22  C   UNK     1)    3.10502401  *   1.39323761  * -19.68951821  *
    23       C(ATOM     23  C   UNK     1)    2.73878287  *   1.99978217  * -18.44283416  *
    24       C(ATOM     24  C   UNK     1)    1.69995329  *   2.93410650  * -18.44280887  *
    25       C(ATOM     25  C   UNK     1)    1.05830329  *   3.23446361  * -19.68947342  *
    26       C(ATOM     26  C   UNK     1)   -0.36490048  *   3.38353344  * -19.68948588  *
    27       C(ATOM     27  C   UNK     1)   -1.05500400  *   3.22261763  * -18.44292312  *
    28       C(ATOM     28  C   UNK     1)   -2.26475096  *   2.52365668  * -18.44297869  *
    29       C(ATOM     29  C   UNK     1)   -2.74854641  *   2.00624243  * -19.68967104  *
    30       C(ATOM     30  C   UNK     1)   -3.32980164  *   0.69866298  * -19.68976073  *
    31       C(ATOM     31  C   UNK     1)   -3.38995827  *  -0.00745380  * -18.44318840  *
    32       C(ATOM     32  C   UNK     1)   -3.09896412  *  -1.37398534  * -18.44324500  *
    33       C(ATOM     33  C   UNK     1)   -2.75635398  *  -1.99405914  * -19.68998073  *
    34       C(ATOM     34  C   UNK     1)   -1.69297900  *  -2.95153712  * -19.68995699  *
    35       C(ATOM     35  C   UNK     1)   -1.04012808  *  -3.22706328  * -18.44325926  *
    36       C(ATOM     36  C   UNK     1)    0.34942076  *  -3.37249207  * -18.44323298  *
    37       C(ATOM     37  C   UNK     1)    1.04507442  *  -3.23810720  * -19.68993748  *
    38       C(ATOM     38  C   UNK     1)    2.28392802  *  -2.52186649  * -19.68988879  *
    39       C(ATOM     39  C   UNK     1)    2.74760309  *  -1.98616899  * -18.44311728  *
    40       C(ATOM     40  C   UNK     1)    3.31549525  *  -0.70960262  * -18.44300286  *
    41       C(ATOM     41  C   UNK     1)    3.42779862  *  -0.00273833  * -17.20438037  *
    42       C(ATOM     42  C   UNK     1)    3.12919344  *   1.39982734  * -17.20430784  *
    43       C(ATOM     43  C   UNK     1)    2.77460842  *   2.01379105  * -15.99486521  *
    44       C(ATOM     44  C   UNK     1)    1.71011228  *   2.97115827  * -15.99482994  *
    45       C(ATOM     45  C   UNK     1)    1.06227785  *   3.25905119  * -17.20424724  *
    46       C(ATOM     46  C   UNK     1)   -0.36391141  *   3.40844270  * -17.20425609  *
    47       C(ATOM     47  C   UNK     1)   -1.05751348  *   3.26100310  * -15.99494510  *
    48       C(ATOM     48  C   UNK     1)   -2.29713803  *   2.54477221  * -15.99501702  *
    49       C(ATOM     49  C   UNK     1)   -2.77102629  *   2.01763582  * -17.20445275  *
    50       C(ATOM     50  C   UNK     1)   -3.35345312  *   0.70724250  * -17.20453752  *
    51       C(ATOM     51  C   UNK     1)   -3.42747892  *   0.00198404  * -15.99521941  *
    52       C(ATOM     52  C   UNK     1)   -3.12928990  *  -1.39827440  * -15.99526977  *
    53       C(ATOM     53  C   UNK     1)   -2.77444354  *  -2.01194713  * -17.20472145  *
    54       C(ATOM     54  C   UNK     1)   -1.70864053  *  -2.97136718  * -17.20469299  *
    55       C(ATOM     55  C   UNK     1)   -1.06094492  *  -3.25985488  * -15.99528141  *
    56       C(ATOM     56  C   UNK     1)    0.36298309  *  -3.40883419  * -15.99524539  *
    57       C(ATOM     57  C   UNK     1)    1.05632580  *  -3.26074789  * -17.20464740  *
    58       C(ATOM     58  C   UNK     1)    2.29781143  *  -2.54295889  * -17.20459680  *
    59       C(ATOM     59  C   UNK     1)    2.77214369  *  -2.01605078  * -15.99512048  *
    60       C(ATOM     60  C   UNK     1)    3.35407204  *  -0.70795389  * -15.99502664  *
    61       C(ATOM     61  C   UNK     1)    3.40414455  *   0.00908712  * -14.75445754  *
    62       C(ATOM     62  C   UNK     1)    3.11238830  *   1.37924006  * -14.75439215  *
    63       C(ATOM     63  C   UNK     1)    2.77549493  *   2.01294681  * -13.51586252  *
    64       C(ATOM     64  C   UNK     1)    1.70912833  *   2.97196134  * -13.51584409  *
    65       C(ATOM     65  C   UNK     1)    1.04353017  *   3.24019240  * -14.75435131  *
    66       C(ATOM     66  C   UNK     1)   -0.34973020  *   3.38609871  * -14.75437020  *
    67       C(ATOM     67  C   UNK     1)   -1.05660750  *   3.26159457  * -13.51595002  *
    68       C(ATOM     68  C   UNK     1)   -2.29836323  *   2.54403997  * -13.51599286  *
    69       C(ATOM     69  C   UNK     1)   -2.75903790  *   1.99389503  * -14.75454126  *
    70       C(ATOM     70  C   UNK     1)   -3.32799250  *   0.71380611  * -14.75461228  *
    71       C(ATOM     71  C   UNK     1)   -3.42796060  *   0.00303551  * -13.51618083  *
    72       C(ATOM     72  C   UNK     1)   -3.12920193  *  -1.39969731  * -13.51619965  *
    73       C(ATOM     73  C   UNK     1)   -2.74837039  *  -2.00789947  * -14.75475972  *
    74       C(ATOM     74  C   UNK     1)   -1.70720601  *  -2.94511369  * -14.75475117  *
    75       C(ATOM     75  C   UNK     1)   -1.06221582  *  -3.25993166  * -13.51620541  *
    76       C(ATOM     76  C   UNK     1)    0.36420520  *  -3.40912457  * -13.51616785  *
    77       C(ATOM     77  C   UNK     1)    1.06035586  *  -3.23468465  * -14.75470141  *
    78       C(ATOM     78  C   UNK     1)    2.27311766  *  -2.53348480  * -14.75465684  *
    79       C(ATOM     79  C   UNK     1)    2.77175173  *  -2.01730140  * -13.51605971  *
    80       C(ATOM     80  C   UNK     1)    3.35467474  *  -0.70691736  * -13.51598980  *
    81       C(ATOM     81  C   UNK     1)    3.42679453  *  -0.00203733  * -12.30610272  *
    82       C(ATOM     82  C   UNK     1)    3.12848066  *   1.39855556  * -12.30605506  *
    83       C(ATOM     83  C   UNK     1)    2.74819612  *   2.00745389  * -11.06575855  *
    84       C(ATOM     84  C   UNK     1)    1.70646076  *   2.94422381  * -11.06573901  *
    85       C(ATOM     85  C   UNK     1)    1.06095781  *   3.25818708  * -12.30603571  *
    86       C(ATOM     86  C   UNK     1)   -0.36325168  *   3.40731018  * -12.30605658  *
    87       C(ATOM     87  C   UNK     1)   -1.05988876  *   3.23383255  * -11.06583042  *
    88       C(ATOM     88  C   UNK     1)   -2.27284350  *   2.53284984  * -11.06586453  *
    89       C(ATOM     89  C   UNK     1)   -2.77087094  *   2.01600466  * -12.30621915  *
    90       C(ATOM     90  C   UNK     1)   -3.35252522  *   0.70746804  * -12.30626860  *
    91       C(ATOM     91  C   UNK     1)   -3.40273752  *  -0.00869578  * -11.06603268  *
    92       C(ATOM     92  C   UNK     1)   -3.11087410  *  -1.37890162  * -11.06605457  *
    93       C(ATOM     93  C   UNK     1)   -2.77329952  *  -2.01235157  * -12.30639202  *
    94       C(ATOM     94  C   UNK     1)   -1.70890404  *  -2.97037895  * -12.30639630  *
    95       C(ATOM     95  C   UNK     1)   -1.04338138  *  -3.23948890  * -11.06606791  *
    96       C(ATOM     96  C   UNK     1)    0.34997607  *  -3.38516695  * -11.06602276  *
    97       C(ATOM     97  C   UNK     1)    1.05674985  *  -3.25964739  * -12.30633084  *
    98       C(ATOM     98  C   UNK     1)    2.29653084  *  -2.54285810  * -12.30628799  *
    99       C(ATOM     99  C   UNK     1)    2.75805848  *  -1.99305432  * -11.06592230  *
   100       C(ATOM    100  C   UNK     1)    3.32752382  *  -0.71301648  * -11.06585124  *
   101       C(ATOM    101  C   UNK     1)    3.42839560  *  -0.00265538  *  -9.82695500  *
   102       C(ATOM    102  C   UNK     1)    3.12969702  *   1.39981436  *  -9.82692083  *
   103       C(ATOM    103  C   UNK     1)    2.77405941  *   2.01280418  *  -8.61721541  *
   104       C(ATOM    104  C   UNK     1)    1.70898242  *   2.97055313  *  -8.61721782  *
   105       C(ATOM    105  C   UNK     1)    1.06202414  *   3.25957926  *  -9.82692501  *
   106       C(ATOM    106  C   UNK     1)   -0.36411548  *   3.40884960  *  -9.82692591  *
   107       C(ATOM    107  C   UNK     1)   -1.05700442  *   3.26003526  *  -8.61729446  *
   108       C(ATOM    108  C   UNK     1)   -2.29716238  *   2.54338412  *  -8.61734105  *
   109       C(ATOM    109  C   UNK     1)   -2.77194201  *   2.01741731  *  -9.82706694  *
   110       C(ATOM    110  C   UNK     1)   -3.35434179  *   0.70710732  *  -9.82709124  *
   111       C(ATOM    111  C   UNK     1)   -3.42693364  *   0.00216773  *  -8.61745348  *
[...]
  364          H(ATOM    364  H04 UNK     1)           0.180040        0.8200     0.81996
  365          H(ATOM    365  H05 UNK     1)           0.179335        0.8207     0.82067
  366          H(ATOM    366  H06 UNK     1)           0.179928        0.8201     0.82007
  367          H(ATOM    367  H07 UNK     1)           0.179261        0.8207     0.82074
  368          H(ATOM    368  H08 UNK     1)           0.179934        0.8201     0.82007
  369          H(ATOM    369  H09 UNK     1)           0.179255        0.8207     0.82074
  370          H(ATOM    370  H10 UNK     1)           0.180018        0.8200     0.81998
  371          H(ATOM    371  H11 UNK     1)           0.179123        0.8209     0.82088
  372          H(ATOM    372  H12 UNK     1)           0.179753        0.8202     0.82025
  373          H(ATOM    373  H13 UNK     1)           0.179611        0.8204     0.82039
  374          H(ATOM    374  H14 UNK     1)           0.179116        0.8209     0.82088
  375          H(ATOM    375  H15 UNK     1)           0.179153        0.8208     0.82085
  376          H(ATOM    376  H16 UNK     1)           0.179812        0.8202     0.82019
  377          H(ATOM    377  H17 UNK     1)           0.179087        0.8209     0.82091
  378          H(ATOM    378  H18 UNK     1)           0.179763        0.8202     0.82024
  379          H(ATOM    379  H19 UNK     1)           0.179813        0.8202     0.82019
  380          H(ATOM    380  H20 UNK     1)           0.179086        0.8209     0.82091
 DIPOLE           X         Y         Z       TOTAL
 POINT-CHG.    -0.003     0.005     0.515     0.515
 HYBRID         0.000     0.000     0.048     0.048
 SUM           -0.002     0.005     0.563     0.563


          ATOMIC ORBITAL ELECTRON POPULATIONS

    Atom      s        px        py        pz   
    1  C   1.08950   0.99375   1.00505   1.05510
    2  C   1.08941   0.99104   1.00787   1.05483
    3  C   1.06617   0.97194   0.98484   0.98132
    4  C   1.06615   0.98131   0.97548   0.98136
    5  C   1.08954   1.00771   0.99080   1.05507
    6  C   1.08939   1.00623   0.99289   1.05488
    7  C   1.06618   0.97423   0.98235   0.98132
    8  C   1.06614   0.96615   0.99076   0.98135
    9  C   1.08955   0.99127   1.00714   1.05510
   10  C   1.08937   0.99716   1.00205   1.05490
   11  C   1.06620   0.99116   0.96527   0.98131
   12  C   1.06615   0.99543   0.96149   0.98135
   13  C   1.08955   1.00351   0.99484   1.05513
   14  C   1.08938   0.99696   1.00226   1.05484
   15  C   1.06620   0.96128   0.99531   0.98133
   16  C   1.06618   0.96328   0.99343   0.98136
   17  C   1.08955   1.00013   0.99833   1.05510
   18  C   1.08939   1.00636   0.99277   1.05482
   19  C   1.06618   0.99290   0.96384   0.98135
   20  C   1.06619   0.98562   0.97084   0.98130
   21  C   1.06210   1.01785   0.97020   0.97187
   22  C   1.06211   1.01972   0.96817   0.97185
   23  C   1.06129   0.98673   0.98848   0.96976
   24  C   1.06127   0.98479   0.99038   0.96977
   25  C   1.06209   0.96689   1.02089   0.97184
   26  C   1.06208   0.96795   1.02021   0.97186
   27  C   1.06128   0.97815   0.99700   0.96976
   28  C   1.06127   0.97983   0.99539   0.96977
   29  C   1.06210   1.01384   0.97387   0.97185
   30  C   1.06209   1.01054   0.97766   0.97187
   31  C   1.06130   1.00360   0.97146   0.96975
   32  C   1.06128   1.00296   0.97226   0.96976
   33  C   1.06210   0.98857   0.99915   0.97184
   34  C   1.06209   0.99365   0.99447   0.97184
   35  C   1.06129   0.97094   1.00431   0.96976
   36  C   1.06129   0.97054   1.00454   0.96976
   37  C   1.06210   0.98254   1.00530   0.97184
   38  C   1.06211   0.97829   1.00962   0.97183
   39  C   1.06129   0.99848   0.97682   0.96977
   40  C   1.06132   0.99961   0.97531   0.96976
   41  C   1.06110   1.00128   0.96599   0.96782
   42  C   1.06112   1.00320   0.96365   0.96780
   43  C   1.06000   0.98278   0.99073   0.96691
   44  C   1.06000   0.98554   0.98756   0.96690
   45  C   1.06109   0.96295   1.00413   0.96783
   46  C   1.06113   0.96409   1.00280   0.96782
   47  C   1.06000   0.97613   0.99732   0.96691
   48  C   1.05999   0.97348   0.99973   0.96689
   49  C   1.06109   0.99936   0.96775   0.96783
   50  C   1.06113   0.99501   0.97188   0.96782
   51  C   1.06002   1.00771   0.96564   0.96690
   52  C   1.05999   1.00885   0.96438   0.96689
   53  C   1.06110   0.97864   0.98844   0.96783
   54  C   1.06115   0.98411   0.98270   0.96781
   55  C   1.06002   0.96318   1.01030   0.96692
   56  C   1.06002   0.96373   1.00930   0.96689
   57  C   1.06110   0.97576   0.99144   0.96782
   58  C   1.06115   0.97073   0.99598   0.96780
   59  C   1.06000   1.00378   0.96976   0.96693
   60  C   1.06002   1.00122   0.97184   0.96689
   61  C   1.06125   1.00144   0.96902   0.96817
   62  C   1.06128   1.00080   0.96915   0.96814
   63  C   1.06164   0.97899   0.98920   0.97040
   64  C   1.06166   0.98464   0.98292   0.97037
   65  C   1.06123   0.96804   1.00241   0.96817
   66  C   1.06127   0.96789   1.00214   0.96814
   67  C   1.06163   0.97628   0.99193   0.97040
   68  C   1.06167   0.97088   0.99663   0.97036
   69  C   1.06124   0.99676   0.97362   0.96817
   70  C   1.06127   0.99687   0.97315   0.96814
   71  C   1.06164   1.00190   0.96637   0.97040
   72  C   1.06169   1.00356   0.96381   0.97035
   73  C   1.06124   0.98371   0.98679   0.96816
   74  C   1.06129   0.98295   0.98702   0.96812
   75  C   1.06164   0.96321   1.00510   0.97040
   76  C   1.06169   0.96437   1.00309   0.97035
   77  C   1.06124   0.97620   0.99436   0.96816
   78  C   1.06129   0.97645   0.99343   0.96812
   79  C   1.06165   1.00014   0.96801   0.97040
   80  C   1.06169   0.99523   0.97232   0.97036
   81  C   1.06105   1.00609   0.96676   0.97016
   82  C   1.06108   1.00723   0.96501   0.97013
   83  C   1.06149   0.98383   0.98701   0.96919
   84  C   1.06152   0.98302   0.98689   0.96912
   85  C   1.06104   0.96409   1.00878   0.97018
   86  C   1.06108   0.96485   1.00734   0.97013
   87  C   1.06148   0.97652   0.99435   0.96921
   88  C   1.06151   0.97658   0.99334   0.96912
   89  C   1.06104   1.00291   0.96995   0.97018
   90  C   1.06109   0.99932   0.97279   0.97012
   91  C   1.06147   1.00158   0.96947   0.96920
   92  C   1.06153   1.00031   0.96947   0.96910
   93  C   1.06104   0.98216   0.99080   0.97019
   94  C   1.06110   0.98584   0.98627   0.97011
   95  C   1.06149   0.96849   1.00245   0.96919
   96  C   1.06153   0.96829   1.00156   0.96911
   97  C   1.06106   0.97698   0.99588   0.97018
   98  C   1.06110   0.97322   0.99894   0.97011
   99  C   1.06149   0.99682   0.97396   0.96919
  100  C   1.06155   0.99648   0.97347   0.96913
  101  C   1.06146   1.00291   0.96639   0.97015
  102  C   1.06155   1.00410   0.96392   0.97007
  103  C   1.06116   0.98098   0.99018   0.96981
  104  C   1.06123   0.98509   0.98470   0.96972
  105  C   1.06144   0.96336   1.00601   0.97016
  106  C   1.06155   0.96438   1.00358   0.97005
  107  C   1.06116   0.97663   0.99447   0.96982
  108  C   1.06122   0.97208   0.99772   0.96972
  109  C   1.06144   1.00095   0.96846   0.97015
  110  C   1.06156   0.99549   0.97230   0.97005
  111  C   1.06116   1.00476   0.96656   0.96982
  112  C   1.06123   1.00530   0.96439   0.96971
  113  C   1.06144   0.97982   0.98966   0.97016
  114  C   1.06156   0.98476   0.98317   0.97004
  115  C   1.06118   0.96370   1.00740   0.96982
  116  C   1.06124   0.96454   1.00527   0.96973
  117  C   1.06145   0.97649   0.99285   0.97014
  118  C   1.06154   0.97120   0.99691   0.97005
  119  C   1.06117   1.00186   0.96920   0.96982
  120  C   1.06124   0.99743   0.97246   0.96973
  121  C   1.06143   1.00120   0.96930   0.96883
  122  C   1.06151   0.99980   0.96920   0.96871
  123  C   1.06134   0.98001   0.98983   0.96996
  124  C   1.06146   0.98468   0.98316   0.96983
  125  C   1.06141   0.96833   1.00225   0.96883
  126  C   1.06151   0.96810   1.00088   0.96871
  127  C   1.06134   0.97646   0.99342   0.96996
  128  C   1.06146   0.97096   0.99677   0.96982
  129  C   1.06140   0.99685   0.97385   0.96883
  130  C   1.06152   0.99559   0.97322   0.96870
  131  C   1.06132   1.00365   0.96635   0.96996
  132  C   1.06146   1.00407   0.96380   0.96981
  133  C   1.06142   0.98371   0.98683   0.96883
  134  C   1.06153   0.98271   0.98627   0.96871
  135  C   1.06135   0.96329   1.00649   0.96994
  136  C   1.06145   0.96429   1.00378   0.96983
  137  C   1.06143   0.97639   0.99405   0.96882
  138  C   1.06153   0.97616   0.99281   0.96871
  139  C   1.06134   1.00127   0.96853   0.96996
  140  C   1.06147   0.99565   0.97226   0.96982
  141  C   1.06126   1.00410   0.96653   0.96991
  142  C   1.06137   1.00448   0.96421   0.96975
  143  C   1.06147   0.98372   0.98695   0.96895
  144  C   1.06157   0.98255   0.98595   0.96878
  145  C   1.06124   0.96368   1.00699   0.96990
  146  C   1.06137   0.96449   1.00415   0.96975
  147  C   1.06145   0.97646   0.99431   0.96895
  148  C   1.06157   0.97590   0.99251   0.96877
  149  C   1.06124   1.00168   0.96909   0.96991
  150  C   1.06138   0.99620   0.97234   0.96975
  151  C   1.06146   1.00137   0.96935   0.96895
  152  C   1.06158   0.99934   0.96912   0.96878
  153  C   1.06126   0.98063   0.98992   0.96990
  154  C   1.06138   0.98484   0.98393   0.96976
  155  C   1.06148   0.96833   1.00221   0.96894
  156  C   1.06158   0.96808   1.00049   0.96879
  157  C   1.06127   0.97658   0.99393   0.96989
  158  C   1.06137   0.97166   0.99713   0.96976
  159  C   1.06147   0.99676   0.97382   0.96894
  160  C   1.06158   0.99541   0.97323   0.96878
  161  C   1.06131   1.00392   0.96634   0.97000
  162  C   1.06148   1.00402   0.96370   0.96981
  163  C   1.06129   0.98069   0.98999   0.96993
  164  C   1.06144   0.98458   0.98339   0.96973
  165  C   1.06130   0.96335   1.00703   0.97000
  166  C   1.06149   0.96422   1.00338   0.96980
  167  C   1.06128   0.97665   0.99414   0.96994
  168  C   1.06144   0.97128   0.99657   0.96973
  169  C   1.06128   1.00183   0.96869   0.97000
  170  C   1.06148   0.99544   0.97222   0.96980
  171  C   1.06130   1.00401   0.96662   0.96993
  172  C   1.06144   1.00391   0.96414   0.96975
  173  C   1.06129   0.98027   0.99010   0.96999
  174  C   1.06146   0.98474   0.98319   0.96981
  175  C   1.06131   0.96370   1.00681   0.96992
  176  C   1.06143   0.96449   1.00363   0.96975
  177  C   1.06130   0.97658   0.99372   0.96998
  178  C   1.06147   0.97096   0.99688   0.96981
  179  C   1.06130   1.00147   0.96905   0.96993
  180  C   1.06144   0.99580   0.97233   0.96974
  181  C   1.06147   1.00152   0.96936   0.96898
  182  C   1.06162   0.99910   0.96901   0.96876
  183  C   1.06127   0.98057   0.99044   0.96999
  184  C   1.06150   0.98465   0.98272   0.96974
  185  C   1.06143   0.96839   1.00274   0.96899
  186  C   1.06162   0.96803   0.99998   0.96874
  187  C   1.06126   0.97671   0.99439   0.97000
  188  C   1.06149   0.97063   0.99684   0.96974
  189  C   1.06144   0.99713   0.97393   0.96899
  190  C   1.06163   0.99483   0.97316   0.96877
  191  C   1.06126   1.00462   0.96634   0.96998
  192  C   1.06146   1.00422   0.96360   0.96976
  193  C   1.06146   0.98378   0.98703   0.96897
  194  C   1.06163   0.98248   0.98566   0.96877
  195  C   1.06127   0.96327   1.00769   0.96998
  196  C   1.06149   0.96413   1.00354   0.96976
  197  C   1.06147   0.97651   0.99431   0.96897
  198  C   1.06161   0.97579   0.99245   0.96876
  199  C   1.06128   1.00218   0.96870   0.96999
  200  C   1.06150   0.99538   0.97222   0.96975
  201  C   1.06133   1.00408   0.96671   0.96997
  202  C   1.06151   1.00341   0.96412   0.96971
  203  C   1.06143   0.98405   0.98739   0.96902
  204  C   1.06162   0.98236   0.98532   0.96872
  205  C   1.06130   0.96390   1.00711   0.96999
  206  C   1.06153   0.96457   1.00270   0.96970
  207  C   1.06142   0.97665   0.99485   0.96904
  208  C   1.06163   0.97544   0.99215   0.96874
  209  C   1.06129   1.00167   0.96929   0.96998
  210  C   1.06151   0.99515   0.97231   0.96973
  211  C   1.06144   1.00190   0.96937   0.96902
  212  C   1.06162   0.99892   0.96888   0.96876
  213  C   1.06131   0.98074   0.98994   0.96996
  214  C   1.06151   0.98448   0.98310   0.96973
  215  C   1.06145   0.96832   1.00292   0.96903
  216  C   1.06162   0.96795   0.99988   0.96876
  217  C   1.06132   0.97670   0.99402   0.96997
  218  C   1.06152   0.97122   0.99631   0.96972
  219  C   1.06144   0.99737   0.97392   0.96903
  220  C   1.06164   0.99461   0.97312   0.96874
  221  C   1.06119   1.00563   0.96622   0.96998
  222  C   1.06149   1.00417   0.96325   0.96967
  223  C   1.06134   0.98107   0.99007   0.96993
  224  C   1.06158   0.98412   0.98258   0.96960
  225  C   1.06116   0.96315   1.00885   0.96999
  226  C   1.06148   0.96391   1.00348   0.96965
  227  C   1.06133   0.97681   0.99432   0.96994
  228  C   1.06158   0.97103   0.99564   0.96962
  229  C   1.06116   1.00322   0.96878   0.96998
  230  C   1.06146   0.99537   0.97213   0.96967
  231  C   1.06132   1.00422   0.96690   0.96992
  232  C   1.06157   1.00259   0.96424   0.96962
  233  C   1.06117   0.98095   0.99091   0.96997
  234  C   1.06147   0.98486   0.98273   0.96967
  235  C   1.06134   0.96409   1.00693   0.96993
  236  C   1.06157   0.96470   1.00212   0.96962
  237  C   1.06117   0.97686   0.99501   0.96997
  238  C   1.06147   0.97047   0.99710   0.96967
  239  C   1.06134   1.00152   0.96952   0.96994
  240  C   1.06158   0.99447   0.97231   0.96961
  241  C   1.06133   1.00284   0.96934   0.96912
  242  C   1.06160   0.99892   0.96857   0.96876
  243  C   1.06107   0.98164   0.99193   0.97017
  244  C   1.06141   0.98521   0.98284   0.96979
  245  C   1.06133   0.96825   1.00395   0.96913
  246  C   1.06162   0.96779   0.99955   0.96876
  247  C   1.06105   0.97721   0.99643   0.97017
  248  C   1.06140   0.97026   0.99787   0.96980
  249  C   1.06133   0.99816   0.97393   0.96912
  250  C   1.06159   0.99443   0.97310   0.96878
  251  C   1.06106   1.00736   0.96614   0.97016
  252  C   1.06140   1.00523   0.96296   0.96981
  253  C   1.06134   0.98424   0.98779   0.96912
  254  C   1.06160   0.98253   0.98511   0.96878
  255  C   1.06108   0.96293   1.01045   0.97016
  256  C   1.06139   0.96367   1.00464   0.96980
  257  C   1.06134   0.97682   0.99523   0.96912
  258  C   1.06161   0.97519   0.99233   0.96877
  259  C   1.06107   1.00459   0.96887   0.97017
  260  C   1.06142   0.99590   0.97219   0.96979
  261  C   1.06153   1.00381   0.96738   0.97044
  262  C   1.06183   1.00138   0.96462   0.97004
  263  C   1.06119   0.98491   0.98908   0.96978
  264  C   1.06150   0.98311   0.98525   0.96936
  265  C   1.06151   0.96472   1.00650   0.97044
  266  C   1.06184   0.96517   1.00069   0.97005
  267  C   1.06119   0.97736   0.99659   0.96978
  268  C   1.06149   0.97503   0.99343   0.96938
  269  C   1.06150   1.00119   0.97002   0.97044
  270  C   1.06182   0.99350   0.97252   0.97006
  271  C   1.06120   1.00444   0.96934   0.96978
  272  C   1.06148   1.00033   0.96832   0.96938
  273  C   1.06150   0.98126   0.98988   0.97044
  274  C   1.06183   0.98392   0.98217   0.97006
  275  C   1.06121   0.96803   1.00572   0.96978
  276  C   1.06148   0.96765   1.00100   0.96938
  277  C   1.06153   0.97698   0.99403   0.97043
  278  C   1.06182   0.97115   0.99491   0.97006
  279  C   1.06120   0.99986   0.97400   0.96977
  280  C   1.06150   0.99523   0.97330   0.96936
  281  C   1.06084   1.00979   0.96584   0.97028
  282  C   1.06126   1.00688   0.96248   0.96985
  283  C   1.06155   0.98056   0.98870   0.96960
  284  C   1.06188   0.98260   0.98073   0.96917
  285  C   1.06083   0.96260   1.01310   0.97029
  286  C   1.06125   0.96325   1.00625   0.96985
  287  C   1.06156   0.97649   0.99262   0.96962
  288  C   1.06187   0.97059   0.99278   0.96919
  289  C   1.06082   1.00671   0.96897   0.97028
  290  C   1.06124   0.99737   0.97220   0.96986
  291  C   1.06156   1.00163   0.96743   0.96961
  292  C   1.06186   0.99883   0.96475   0.96919
  293  C   1.06084   0.98243   0.99299   0.97028
  294  C   1.06123   0.98603   0.98371   0.96987
  295  C   1.06157   0.96487   1.00402   0.96960
  296  C   1.06186   0.96532   0.99837   0.96919
  297  C   1.06086   0.97747   0.99788   0.97028
  298  C   1.06126   0.97032   0.99927   0.96988
  299  C   1.06158   0.99903   0.96982   0.96960
  300  C   1.06189   0.99135   0.97215   0.96919
  301  C   1.05998   1.00780   0.96759   0.96669
  302  C   1.06026   1.00343   0.96646   0.96626
  303  C   1.06008   0.98283   0.99346   0.96790
  304  C   1.06050   0.98598   0.98386   0.96748
  305  C   1.05994   0.96614   1.00950   0.96669
  306  C   1.06026   0.96566   1.00421   0.96626
  307  C   1.06007   0.97727   0.99904   0.96791
  308  C   1.06047   0.97013   0.99992   0.96749
  309  C   1.05993   1.00263   0.97291   0.96669
  310  C   1.06024   0.99782   0.97222   0.96627
  311  C   1.06008   1.01090   0.96525   0.96790
  312  C   1.06047   1.00819   0.96201   0.96749
  313  C   1.05996   0.98527   0.99002   0.96668
  314  C   1.06023   0.98377   0.98651   0.96628
  315  C   1.06010   0.96193   1.01401   0.96788
  316  C   1.06048   0.96263   1.00764   0.96749
  317  C   1.05998   0.97671   0.99849   0.96667
  318  C   1.06024   0.97448   0.99573   0.96627
  319  C   1.06011   1.00734   0.96859   0.96790
  320  C   1.06050   0.99827   0.97182   0.96749
  321  C   1.06186   1.00066   0.97061   0.97120
  322  C   1.06219   0.99751   0.96839   0.97080
  323  C   1.06183   0.99136   1.00018   0.97202
  324  C   1.06200   0.99301   0.99433   0.97167
  325  C   1.06185   0.96860   1.00281   0.97122
  326  C   1.06218   0.96877   0.99704   0.97079
  327  C   1.06182   0.98367   1.00789   0.97205
  328  C   1.06200   0.97925   1.00810   0.97167
  329  C   1.06185   0.99817   0.97305   0.97121
  330  C   1.06217   0.99140   0.97458   0.97081
  331  C   1.06183   1.01966   0.97178   0.97204
  332  C   1.06201   1.01769   0.96973   0.97168
  333  C   1.06187   0.98223   0.98880   0.97120
  334  C   1.06218   0.98366   0.98243   0.97082
  335  C   1.06186   0.96903   1.02222   0.97201
  336  C   1.06200   0.96933   1.01829   0.97169
  337  C   1.06187   0.97835   0.99273   0.97119
  338  C   1.06217   0.97366   0.99246   0.97081
  339  C   1.06185   1.01488   0.97650   0.97203
  340  C   1.06201   1.00920   0.97822   0.97168
  341  C   1.06551   0.99876   0.96401   0.98060
  342  C   1.06586   0.99888   0.95929   0.98030
  343  C   1.08996   0.99699   0.99598   1.05863
  344  C   1.09036   0.99628   0.99291   1.05866
  345  C   1.06548   0.95979   1.00316   0.98065
  346  C   1.06586   0.96142   0.99660   0.98025
  347  C   1.08993   1.00109   0.99203   1.05873
  348  C   1.09031   0.99921   0.99015   1.05864
  349  C   1.06547   0.99912   0.96381   0.98062
  350  C   1.06584   0.98789   0.97026   0.98026
  351  C   1.08993   0.98866   1.00443   1.05869
  352  C   1.09032   0.98571   1.00368   1.05867
  353  C   1.06549   0.97448   0.98825   0.98060
  354  C   1.06584   0.98260   0.97586   0.98028
  355  C   1.08995   1.00474   0.98824   1.05865
  356  C   1.09035   1.00471   0.98470   1.05870
  357  C   1.06553   0.97486   0.98763   0.98059
  358  C   1.06586   0.96478   0.99347   0.98028
  359  C   1.08996   0.99104   1.00188   1.05867
  360  C   1.09032   0.98749   1.00191   1.05869
  361  H   0.82005
  362  H   0.82073
  363  H   0.82063
  364  H   0.81996
  365  H   0.82067
  366  H   0.82007
  367  H   0.82074
  368  H   0.82007
  369  H   0.82074
  370  H   0.81998
  371  H   0.82088
  372  H   0.82025
  373  H   0.82039
  374  H   0.82088
  375  H   0.82085
  376  H   0.82019
  377  H   0.82091
  378  H   0.82024
  379  H   0.82019
  380  H   0.82091

          JOB ENDED NORMALLY



 TOTAL JOB TIME:           962.97 SECONDS

 == MOPAC DONE ==
